LAMMPS data file via write_data, version 27 May 2021, timestep = 0

16060 atoms
3 atom types

0 71.12 xlo xhi
0 71.12 ylo yhi
0 71.12 zlo zhi

Masses

1 238.03
2 95.94
3 131.3

Atoms # atomic

1 1 0 0 0 0 0 0
2 1 1.778 1.778 1.778 0 0 0
3 1 3.556 0 0 0 0 0
41 1 0 3.556 0 0 0 0
43 1 3.556 3.556 0 0 0 0
801 1 0 0 3.556 0 0 0
803 1 3.556 0 3.556 0 0 0
841 1 0 3.556 3.556 0 0 0
843 1 3.556 3.556 3.556 0 0 0
4 1 5.334 1.778 1.778 0 0 0
5 1 7.112 0 0 0 0 0
45 1 7.112 3.556 0 0 0 0
805 1 7.112 0 3.556 0 0 0
845 1 7.112 3.556 3.556 0 0 0
6 1 8.89 1.778 1.778 0 0 0
7 1 10.668 0 0 0 0 0
8 1 12.446 1.778 1.778 0 0 0
47 1 10.668 3.556 0 0 0 0
807 1 10.668 0 3.556 0 0 0
847 1 10.668 3.556 3.556 0 0 0
9 1 14.224 0 0 0 0 0
10 1 16.002 1.778 1.778 0 0 0
49 1 14.224 3.556 0 0 0 0
809 1 14.224 0 3.556 0 0 0
849 1 14.224 3.556 3.556 0 0 0
11 1 17.78 0 0 0 0 0
12 1 19.558 1.778 1.778 0 0 0
51 1 17.78 3.556 0 0 0 0
811 1 17.78 0 3.556 0 0 0
851 1 17.78 3.556 3.556 0 0 0
15940 3 18.076333333333334 0.5926666666666667 0 0 0 0
13 1 21.336 0 0 0 0 0
14 1 23.114 1.778 1.778 0 0 0
15 1 24.892 0 0 0 0 0
53 1 21.336 3.556 0 0 0 0
55 1 24.892 3.556 0 0 0 0
813 1 21.336 0 3.556 0 0 0
815 1 24.892 0 3.556 0 0 0
853 1 21.336 3.556 3.556 0 0 0
855 1 24.892 3.556 3.556 0 0 0
16 1 26.67 1.778 1.778 0 0 0
17 1 28.448 0 0 0 0 0
57 1 28.448 3.556 0 0 0 0
817 1 28.448 0 3.556 0 0 0
857 1 28.448 3.556 3.556 0 0 0
18 1 30.226 1.778 1.778 0 0 0
19 1 32.004 0 0 0 0 0
59 1 32.004 3.556 0 0 0 0
819 1 32.004 0 3.556 0 0 0
859 1 32.004 3.556 3.556 0 0 0
20 1 33.782000000000004 1.778 1.778 0 0 0
21 1 35.56 0 0 0 0 0
22 1 37.338 1.778 1.778 0 0 0
61 1 35.56 3.556 0 0 0 0
821 1 35.56 0 3.556 0 0 0
861 1 35.56 3.556 3.556 0 0 0
23 1 39.116 0 0 0 0 0
24 1 40.894 1.778 1.778 0 0 0
63 1 39.116 3.556 0 0 0 0
823 1 39.116 0 3.556 0 0 0
863 1 39.116 3.556 3.556 0 0 0
25 1 42.672 0 0 0 0 0
26 1 44.45 1.778 1.778 0 0 0
65 1 42.672 3.556 0 0 0 0
825 1 42.672 0 3.556 0 0 0
865 1 42.672 3.556 3.556 0 0 0
27 1 46.228 0 0 0 0 0
28 1 48.006 1.778 1.778 0 0 0
29 1 49.784 0 0 0 0 0
67 1 46.228 3.556 0 0 0 0
69 1 49.784 3.556 0 0 0 0
827 1 46.228 0 3.556 0 0 0
829 1 49.784 0 3.556 0 0 0
867 1 46.228 3.556 3.556 0 0 0
869 1 49.784 3.556 3.556 0 0 0
30 1 51.562 1.778 1.778 0 0 0
31 1 53.34 0 0 0 0 0
71 1 53.34 3.556 0 0 0 0
831 1 53.34 0 3.556 0 0 0
871 1 53.34 3.556 3.556 0 0 0
32 1 55.118 1.778 1.778 0 0 0
33 1 56.896 0 0 0 0 0
73 1 56.896 3.556 0 0 0 0
833 1 56.896 0 3.556 0 0 0
873 1 56.896 3.556 3.556 0 0 0
34 1 58.674 1.778 1.778 0 0 0
35 1 60.452 0 0 0 0 0
36 1 62.230000000000004 1.778 1.778 0 0 0
75 1 60.452 3.556 0 0 0 0
835 1 60.452 0 3.556 0 0 0
875 1 60.452 3.556 3.556 0 0 0
37 1 64.008 0 0 0 0 0
38 1 65.786 1.778 1.778 0 0 0
77 1 64.008 3.556 0 0 0 0
837 1 64.008 0 3.556 0 0 0
877 1 64.008 3.556 3.556 0 0 0
39 1 67.56400000000001 0 0 0 0 0
40 1 69.342 1.778 1.778 0 0 0
79 1 67.56400000000001 3.556 0 0 0 0
839 1 67.56400000000001 0 3.556 0 0 0
879 1 67.56400000000001 3.556 3.556 0 0 0
42 1 1.778 5.334 1.778 0 0 0
81 1 0 7.112 0 0 0 0
83 1 3.556 7.112 0 0 0 0
881 1 0 7.112 3.556 0 0 0
883 1 3.556 7.112 3.556 0 0 0
44 1 5.334 5.334 1.778 0 0 0
85 1 7.112 7.112 0 0 0 0
885 1 7.112 7.112 3.556 0 0 0
15977 3 7.408333333333333 7.704666666666666 0 0 0 0
46 1 8.89 5.334 1.778 0 0 0
48 1 12.446 5.334 1.778 0 0 0
87 1 10.668 7.112 0 0 0 0
887 1 10.668 7.112 3.556 0 0 0
50 1 16.002 5.334 1.778 0 0 0
89 1 14.224 7.112 0 0 0 0
889 1 14.224 7.112 3.556 0 0 0
52 1 19.558 5.334 1.778 0 0 0
91 1 17.78 7.112 0 0 0 0
891 1 17.78 7.112 3.556 0 0 0
15980 3 18.076333333333334 7.704666666666666 0 0 0 0
54 1 23.114 5.334 1.778 0 0 0
93 1 21.336 7.112 0 0 0 0
95 1 24.892 7.112 0 0 0 0
893 1 21.336 7.112 3.556 0 0 0
895 1 24.892 7.112 3.556 0 0 0
56 1 26.67 5.334 1.778 0 0 0
97 1 28.448 7.112 0 0 0 0
897 1 28.448 7.112 3.556 0 0 0
58 1 30.226 5.334 1.778 0 0 0
99 1 32.004 7.112 0 0 0 0
899 1 32.004 7.112 3.556 0 0 0
60 1 33.782000000000004 5.334 1.778 0 0 0
62 1 37.338 5.334 1.778 0 0 0
101 1 35.56 7.112 0 0 0 0
901 1 35.56 7.112 3.556 0 0 0
64 1 40.894 5.334 1.778 0 0 0
103 1 39.116 7.112 0 0 0 0
903 1 39.116 7.112 3.556 0 0 0
66 1 44.45 5.334 1.778 0 0 0
105 1 42.672 7.112 0 0 0 0
905 1 42.672 7.112 3.556 0 0 0
68 1 48.006 5.334 1.778 0 0 0
107 1 46.228 7.112 0 0 0 0
109 1 49.784 7.112 0 0 0 0
907 1 46.228 7.112 3.556 0 0 0
909 1 49.784 7.112 3.556 0 0 0
70 1 51.562 5.334 1.778 0 0 0
111 1 53.34 7.112 0 0 0 0
911 1 53.34 7.112 3.556 0 0 0
72 1 55.118 5.334 1.778 0 0 0
113 1 56.896 7.112 0 0 0 0
913 1 56.896 7.112 3.556 0 0 0
74 1 58.674 5.334 1.778 0 0 0
76 1 62.230000000000004 5.334 1.778 0 0 0
115 1 60.452 7.112 0 0 0 0
915 1 60.452 7.112 3.556 0 0 0
78 1 65.786 5.334 1.778 0 0 0
117 1 64.008 7.112 0 0 0 0
917 1 64.008 7.112 3.556 0 0 0
15993 3 64.30433333333333 7.704666666666666 0 0 0 0
80 1 69.342 5.334 1.778 0 0 0
119 1 67.56400000000001 7.112 0 0 0 0
919 1 67.56400000000001 7.112 3.556 0 0 0
82 1 1.778 8.89 1.778 0 0 0
121 1 0 10.668 0 0 0 0
122 1 1.778 12.446 1.778 0 0 0
123 1 3.556 10.668 0 0 0 0
921 1 0 10.668 3.556 0 0 0
923 1 3.556 10.668 3.556 0 0 0
84 1 5.334 8.89 1.778 0 0 0
124 1 5.334 12.446 1.778 0 0 0
125 1 7.112 10.668 0 0 0 0
925 1 7.112 10.668 3.556 0 0 0
86 1 8.89 8.89 1.778 0 0 0
88 1 12.446 8.89 1.778 0 0 0
126 1 8.89 12.446 1.778 0 0 0
127 1 10.668 10.668 0 0 0 0
128 1 12.446 12.446 1.778 0 0 0
927 1 10.668 10.668 3.556 0 0 0
90 1 16.002 8.89 1.778 0 0 0
129 1 14.224 10.668 0 0 0 0
130 1 16.002 12.446 1.778 0 0 0
929 1 14.224 10.668 3.556 0 0 0
92 1 19.558 8.89 1.778 0 0 0
131 1 17.78 10.668 0 0 0 0
132 1 19.558 12.446 1.778 0 0 0
931 1 17.78 10.668 3.556 0 0 0
94 1 23.114 8.89 1.778 0 0 0
133 1 21.336 10.668 0 0 0 0
134 1 23.114 12.446 1.778 0 0 0
135 1 24.892 10.668 0 0 0 0
933 1 21.336 10.668 3.556 0 0 0
935 1 24.892 10.668 3.556 0 0 0
96 1 26.67 8.89 1.778 0 0 0
136 1 26.67 12.446 1.778 0 0 0
137 1 28.448 10.668 0 0 0 0
937 1 28.448 10.668 3.556 0 0 0
98 1 30.226 8.89 1.778 0 0 0
138 1 30.226 12.446 1.778 0 0 0
139 1 32.004 10.668 0 0 0 0
939 1 32.004 10.668 3.556 0 0 0
100 1 33.782000000000004 8.89 1.778 0 0 0
102 1 37.338 8.89 1.778 0 0 0
140 1 33.782000000000004 12.446 1.778 0 0 0
141 1 35.56 10.668 0 0 0 0
142 1 37.338 12.446 1.778 0 0 0
941 1 35.56 10.668 3.556 0 0 0
104 1 40.894 8.89 1.778 0 0 0
143 1 39.116 10.668 0 0 0 0
144 1 40.894 12.446 1.778 0 0 0
943 1 39.116 10.668 3.556 0 0 0
106 1 44.45 8.89 1.778 0 0 0
145 1 42.672 10.668 0 0 0 0
146 1 44.45 12.446 1.778 0 0 0
945 1 42.672 10.668 3.556 0 0 0
108 1 48.006 8.89 1.778 0 0 0
147 1 46.228 10.668 0 0 0 0
148 1 48.006 12.446 1.778 0 0 0
149 1 49.784 10.668 0 0 0 0
947 1 46.228 10.668 3.556 0 0 0
949 1 49.784 10.668 3.556 0 0 0
110 1 51.562 8.89 1.778 0 0 0
150 1 51.562 12.446 1.778 0 0 0
151 1 53.34 10.668 0 0 0 0
951 1 53.34 10.668 3.556 0 0 0
112 1 55.118 8.89 1.778 0 0 0
152 1 55.118 12.446 1.778 0 0 0
153 1 56.896 10.668 0 0 0 0
953 1 56.896 10.668 3.556 0 0 0
114 1 58.674 8.89 1.778 0 0 0
116 1 62.230000000000004 8.89 1.778 0 0 0
154 1 58.674 12.446 1.778 0 0 0
155 1 60.452 10.668 0 0 0 0
156 1 62.230000000000004 12.446 1.778 0 0 0
955 1 60.452 10.668 3.556 0 0 0
118 1 65.786 8.89 1.778 0 0 0
157 1 64.008 10.668 0 0 0 0
158 1 65.786 12.446 1.778 0 0 0
957 1 64.008 10.668 3.556 0 0 0
120 1 69.342 8.89 1.778 0 0 0
159 1 67.56400000000001 10.668 0 0 0 0
160 1 69.342 12.446 1.778 0 0 0
959 1 67.56400000000001 10.668 3.556 0 0 0
161 1 0 14.224 0 0 0 0
162 1 1.778 16.002 1.778 0 0 0
163 1 3.556 14.224 0 0 0 0
961 1 0 14.224 3.556 0 0 0
963 1 3.556 14.224 3.556 0 0 0
164 1 5.334 16.002 1.778 0 0 0
165 1 7.112 14.224 0 0 0 0
965 1 7.112 14.224 3.556 0 0 0
166 1 8.89 16.002 1.778 0 0 0
167 1 10.668 14.224 0 0 0 0
168 1 12.446 16.002 1.778 0 0 0
967 1 10.668 14.224 3.556 0 0 0
169 1 14.224 14.224 0 0 0 0
170 1 16.002 16.002 1.778 0 0 0
969 1 14.224 14.224 3.556 0 0 0
171 1 17.78 14.224 0 0 0 0
172 1 19.558 16.002 1.778 0 0 0
971 1 17.78 14.224 3.556 0 0 0
173 1 21.336 14.224 0 0 0 0
174 1 23.114 16.002 1.778 0 0 0
175 1 24.892 14.224 0 0 0 0
973 1 21.336 14.224 3.556 0 0 0
975 1 24.892 14.224 3.556 0 0 0
176 1 26.67 16.002 1.778 0 0 0
177 1 28.448 14.224 0 0 0 0
977 1 28.448 14.224 3.556 0 0 0
178 1 30.226 16.002 1.778 0 0 0
179 1 32.004 14.224 0 0 0 0
979 1 32.004 14.224 3.556 0 0 0
180 1 33.782000000000004 16.002 1.778 0 0 0
181 1 35.56 14.224 0 0 0 0
182 1 37.338 16.002 1.778 0 0 0
981 1 35.56 14.224 3.556 0 0 0
183 1 39.116 14.224 0 0 0 0
184 1 40.894 16.002 1.778 0 0 0
983 1 39.116 14.224 3.556 0 0 0
185 1 42.672 14.224 0 0 0 0
186 1 44.45 16.002 1.778 0 0 0
187 1 46.228 14.224 0 0 0 0
188 1 48.006 16.002 1.778 0 0 0
189 1 49.784 14.224 0 0 0 0
987 1 46.228 14.224 3.556 0 0 0
989 1 49.784 14.224 3.556 0 0 0
190 1 51.562 16.002 1.778 0 0 0
191 1 53.34 14.224 0 0 0 0
991 1 53.34 14.224 3.556 0 0 0
192 1 55.118 16.002 1.778 0 0 0
193 1 56.896 14.224 0 0 0 0
993 1 56.896 14.224 3.556 0 0 0
194 1 58.674 16.002 1.778 0 0 0
195 1 60.452 14.224 0 0 0 0
196 1 62.230000000000004 16.002 1.778 0 0 0
995 1 60.452 14.224 3.556 0 0 0
197 1 64.008 14.224 0 0 0 0
198 1 65.786 16.002 1.778 0 0 0
997 1 64.008 14.224 3.556 0 0 0
199 1 67.56400000000001 14.224 0 0 0 0
200 1 69.342 16.002 1.778 0 0 0
999 1 67.56400000000001 14.224 3.556 0 0 0
201 1 0 17.78 0 0 0 0
202 1 1.778 19.558 1.778 0 0 0
203 1 3.556 17.78 0 0 0 0
1001 1 0 17.78 3.556 0 0 0
1003 1 3.556 17.78 3.556 0 0 0
16035 3 0.29633333333333334 18.372666666666667 0 0 0 0
204 1 5.334 19.558 1.778 0 0 0
205 1 7.112 17.78 0 0 0 0
1005 1 7.112 17.78 3.556 0 0 0
206 1 8.89 19.558 1.778 0 0 0
207 1 10.668 17.78 0 0 0 0
208 1 12.446 19.558 1.778 0 0 0
1007 1 10.668 17.78 3.556 0 0 0
210 1 16.002 19.558 1.778 0 0 0
1009 1 14.224 17.78 3.556 0 0 0
211 1 17.78 17.78 0 0 0 0
212 1 19.558 19.558 1.778 0 0 0
1011 1 17.78 17.78 3.556 0 0 0
213 1 21.336 17.78 0 0 0 0
214 1 23.114 19.558 1.778 0 0 0
215 1 24.892 17.78 0 0 0 0
1013 1 21.336 17.78 3.556 0 0 0
1015 1 24.892 17.78 3.556 0 0 0
216 1 26.67 19.558 1.778 0 0 0
217 1 28.448 17.78 0 0 0 0
1017 1 28.448 17.78 3.556 0 0 0
218 1 30.226 19.558 1.778 0 0 0
219 1 32.004 17.78 0 0 0 0
1019 1 32.004 17.78 3.556 0 0 0
220 1 33.782000000000004 19.558 1.778 0 0 0
221 1 35.56 17.78 0 0 0 0
222 1 37.338 19.558 1.778 0 0 0
1021 1 35.56 17.78 3.556 0 0 0
223 1 39.116 17.78 0 0 0 0
224 1 40.894 19.558 1.778 0 0 0
1023 1 39.116 17.78 3.556 0 0 0
225 1 42.672 17.78 0 0 0 0
226 1 44.45 19.558 1.778 0 0 0
1025 1 42.672 17.78 3.556 0 0 0
227 1 46.228 17.78 0 0 0 0
228 1 48.006 19.558 1.778 0 0 0
229 1 49.784 17.78 0 0 0 0
1027 1 46.228 17.78 3.556 0 0 0
1029 1 49.784 17.78 3.556 0 0 0
16048 3 46.52433333333334 18.372666666666667 0 0 0 0
230 1 51.562 19.558 1.778 0 0 0
231 1 53.34 17.78 0 0 0 0
1031 1 53.34 17.78 3.556 0 0 0
232 1 55.118 19.558 1.778 0 0 0
233 1 56.896 17.78 0 0 0 0
1033 1 56.896 17.78 3.556 0 0 0
234 1 58.674 19.558 1.778 0 0 0
235 1 60.452 17.78 0 0 0 0
236 1 62.230000000000004 19.558 1.778 0 0 0
1035 1 60.452 17.78 3.556 0 0 0
237 1 64.008 17.78 0 0 0 0
238 1 65.786 19.558 1.778 0 0 0
1037 1 64.008 17.78 3.556 0 0 0
239 1 67.56400000000001 17.78 0 0 0 0
240 1 69.342 19.558 1.778 0 0 0
1039 1 67.56400000000001 17.78 3.556 0 0 0
241 1 0 21.336 0 0 0 0
242 1 1.778 23.114 1.778 0 0 0
243 1 3.556 21.336 0 0 0 0
281 1 0 24.892 0 0 0 0
283 1 3.556 24.892 0 0 0 0
1041 1 0 21.336 3.556 0 0 0
1043 1 3.556 21.336 3.556 0 0 0
1081 1 0 24.892 3.556 0 0 0
1083 1 3.556 24.892 3.556 0 0 0
16055 3 0.29633333333333334 21.928666666666665 0 0 0 0
244 1 5.334 23.114 1.778 0 0 0
245 1 7.112 21.336 0 0 0 0
285 1 7.112 24.892 0 0 0 0
1045 1 7.112 21.336 3.556 0 0 0
1085 1 7.112 24.892 3.556 0 0 0
246 1 8.89 23.114 1.778 0 0 0
247 1 10.668 21.336 0 0 0 0
248 1 12.446 23.114 1.778 0 0 0
287 1 10.668 24.892 0 0 0 0
1047 1 10.668 21.336 3.556 0 0 0
1087 1 10.668 24.892 3.556 0 0 0
249 1 14.224 21.336 0 0 0 0
250 1 16.002 23.114 1.778 0 0 0
289 1 14.224 24.892 0 0 0 0
1049 1 14.224 21.336 3.556 0 0 0
1089 1 14.224 24.892 3.556 0 0 0
251 1 17.78 21.336 0 0 0 0
252 1 19.558 23.114 1.778 0 0 0
291 1 17.78 24.892 0 0 0 0
1051 1 17.78 21.336 3.556 0 0 0
1091 1 17.78 24.892 3.556 0 0 0
253 1 21.336 21.336 0 0 0 0
254 1 23.114 23.114 1.778 0 0 0
255 1 24.892 21.336 0 0 0 0
293 1 21.336 24.892 0 0 0 0
295 1 24.892 24.892 0 0 0 0
1053 1 21.336 21.336 3.556 0 0 0
1055 1 24.892 21.336 3.556 0 0 0
1093 1 21.336 24.892 3.556 0 0 0
1095 1 24.892 24.892 3.556 0 0 0
256 1 26.67 23.114 1.778 0 0 0
257 1 28.448 21.336 0 0 0 0
297 1 28.448 24.892 0 0 0 0
1057 1 28.448 21.336 3.556 0 0 0
1097 1 28.448 24.892 3.556 0 0 0
258 1 30.226 23.114 1.778 0 0 0
259 1 32.004 21.336 0 0 0 0
299 1 32.004 24.892 0 0 0 0
1059 1 32.004 21.336 3.556 0 0 0
1099 1 32.004 24.892 3.556 0 0 0
260 1 33.782000000000004 23.114 1.778 0 0 0
261 1 35.56 21.336 0 0 0 0
262 1 37.338 23.114 1.778 0 0 0
301 1 35.56 24.892 0 0 0 0
1061 1 35.56 21.336 3.556 0 0 0
263 1 39.116 21.336 0 0 0 0
264 1 40.894 23.114 1.778 0 0 0
303 1 39.116 24.892 0 0 0 0
1063 1 39.116 21.336 3.556 0 0 0
1103 1 39.116 24.892 3.556 0 0 0
265 1 42.672 21.336 0 0 0 0
266 1 44.45 23.114 1.778 0 0 0
305 1 42.672 24.892 0 0 0 0
1065 1 42.672 21.336 3.556 0 0 0
1105 1 42.672 24.892 3.556 0 0 0
267 1 46.228 21.336 0 0 0 0
268 1 48.006 23.114 1.778 0 0 0
269 1 49.784 21.336 0 0 0 0
307 1 46.228 24.892 0 0 0 0
309 1 49.784 24.892 0 0 0 0
1067 1 46.228 21.336 3.556 0 0 0
1069 1 49.784 21.336 3.556 0 0 0
1107 1 46.228 24.892 3.556 0 0 0
1109 1 49.784 24.892 3.556 0 0 0
270 1 51.562 23.114 1.778 0 0 0
271 1 53.34 21.336 0 0 0 0
311 1 53.34 24.892 0 0 0 0
1071 1 53.34 21.336 3.556 0 0 0
1111 1 53.34 24.892 3.556 0 0 0
272 1 55.118 23.114 1.778 0 0 0
273 1 56.896 21.336 0 0 0 0
313 1 56.896 24.892 0 0 0 0
1073 1 56.896 21.336 3.556 0 0 0
1113 1 56.896 24.892 3.556 0 0 0
274 1 58.674 23.114 1.778 0 0 0
275 1 60.452 21.336 0 0 0 0
276 1 62.230000000000004 23.114 1.778 0 0 0
315 1 60.452 24.892 0 0 0 0
1075 1 60.452 21.336 3.556 0 0 0
1115 1 60.452 24.892 3.556 0 0 0
277 1 64.008 21.336 0 0 0 0
278 1 65.786 23.114 1.778 0 0 0
317 1 64.008 24.892 0 0 0 0
1077 1 64.008 21.336 3.556 0 0 0
1117 1 64.008 24.892 3.556 0 0 0
279 1 67.56400000000001 21.336 0 0 0 0
280 1 69.342 23.114 1.778 0 0 0
319 1 67.56400000000001 24.892 0 0 0 0
1079 1 67.56400000000001 21.336 3.556 0 0 0
1119 1 67.56400000000001 24.892 3.556 0 0 0
16009 3 67.86033333333334 21.928666666666665 3.556 0 0 0
282 1 1.778 26.67 1.778 0 0 0
321 1 0 28.448 0 0 0 0
323 1 3.556 28.448 0 0 0 0
1121 1 0 28.448 3.556 0 0 0
1123 1 3.556 28.448 3.556 0 0 0
284 1 5.334 26.67 1.778 0 0 0
325 1 7.112 28.448 0 0 0 0
1125 1 7.112 28.448 3.556 0 0 0
286 1 8.89 26.67 1.778 0 0 0
288 1 12.446 26.67 1.778 0 0 0
327 1 10.668 28.448 0 0 0 0
1127 1 10.668 28.448 3.556 0 0 0
290 1 16.002 26.67 1.778 0 0 0
329 1 14.224 28.448 0 0 0 0
1129 1 14.224 28.448 3.556 0 0 0
15962 3 14.520333333333333 25.484666666666666 0 0 0 0
292 1 19.558 26.67 1.778 0 0 0
331 1 17.78 28.448 0 0 0 0
1131 1 17.78 28.448 3.556 0 0 0
15975 3 18.076333333333334 25.484666666666666 3.556 0 0 0
294 1 23.114 26.67 1.778 0 0 0
333 1 21.336 28.448 0 0 0 0
335 1 24.892 28.448 0 0 0 0
1133 1 21.336 28.448 3.556 0 0 0
1135 1 24.892 28.448 3.556 0 0 0
296 1 26.67 26.67 1.778 0 0 0
337 1 28.448 28.448 0 0 0 0
1137 1 28.448 28.448 3.556 0 0 0
298 1 30.226 26.67 1.778 0 0 0
339 1 32.004 28.448 0 0 0 0
1139 1 32.004 28.448 3.556 0 0 0
300 1 33.782000000000004 26.67 1.778 0 0 0
302 1 37.338 26.67 1.778 0 0 0
341 1 35.56 28.448 0 0 0 0
1141 1 35.56 28.448 3.556 0 0 0
304 1 40.894 26.67 1.778 0 0 0
343 1 39.116 28.448 0 0 0 0
1143 1 39.116 28.448 3.556 0 0 0
306 1 44.45 26.67 1.778 0 0 0
345 1 42.672 28.448 0 0 0 0
1145 1 42.672 28.448 3.556 0 0 0
15963 3 42.968333333333334 25.484666666666666 0 0 0 0
308 1 48.006 26.67 1.778 0 0 0
347 1 46.228 28.448 0 0 0 0
349 1 49.784 28.448 0 0 0 0
1147 1 46.228 28.448 3.556 0 0 0
1149 1 49.784 28.448 3.556 0 0 0
310 1 51.562 26.67 1.778 0 0 0
351 1 53.34 28.448 0 0 0 0
1151 1 53.34 28.448 3.556 0 0 0
312 1 55.118 26.67 1.778 0 0 0
353 1 56.896 28.448 0 0 0 0
1153 1 56.896 28.448 3.556 0 0 0
314 1 58.674 26.67 1.778 0 0 0
316 1 62.230000000000004 26.67 1.778 0 0 0
355 1 60.452 28.448 0 0 0 0
1155 1 60.452 28.448 3.556 0 0 0
318 1 65.786 26.67 1.778 0 0 0
357 1 64.008 28.448 0 0 0 0
1157 1 64.008 28.448 3.556 0 0 0
320 1 69.342 26.67 1.778 0 0 0
359 1 67.56400000000001 28.448 0 0 0 0
1159 1 67.56400000000001 28.448 3.556 0 0 0
322 1 1.778 30.226 1.778 0 0 0
361 1 0 32.004 0 0 0 0
363 1 3.556 32.004 0 0 0 0
1161 1 0 32.004 3.556 0 0 0
1163 1 3.556 32.004 3.556 0 0 0
324 1 5.334 30.226 1.778 0 0 0
365 1 7.112 32.004 0 0 0 0
1165 1 7.112 32.004 3.556 0 0 0
326 1 8.89 30.226 1.778 0 0 0
328 1 12.446 30.226 1.778 0 0 0
367 1 10.668 32.004 0 0 0 0
1167 1 10.668 32.004 3.556 0 0 0
330 1 16.002 30.226 1.778 0 0 0
369 1 14.224 32.004 0 0 0 0
1169 1 14.224 32.004 3.556 0 0 0
332 1 19.558 30.226 1.778 0 0 0
371 1 17.78 32.004 0 0 0 0
1171 1 17.78 32.004 3.556 0 0 0
334 1 23.114 30.226 1.778 0 0 0
373 1 21.336 32.004 0 0 0 0
375 1 24.892 32.004 0 0 0 0
1173 1 21.336 32.004 3.556 0 0 0
1175 1 24.892 32.004 3.556 0 0 0
336 1 26.67 30.226 1.778 0 0 0
377 1 28.448 32.004 0 0 0 0
1177 1 28.448 32.004 3.556 0 0 0
338 1 30.226 30.226 1.778 0 0 0
379 1 32.004 32.004 0 0 0 0
1179 1 32.004 32.004 3.556 0 0 0
340 1 33.782000000000004 30.226 1.778 0 0 0
342 1 37.338 30.226 1.778 0 0 0
381 1 35.56 32.004 0 0 0 0
1181 1 35.56 32.004 3.556 0 0 0
344 1 40.894 30.226 1.778 0 0 0
383 1 39.116 32.004 0 0 0 0
1183 1 39.116 32.004 3.556 0 0 0
346 1 44.45 30.226 1.778 0 0 0
1185 1 42.672 32.004 3.556 0 0 0
348 1 48.006 30.226 1.778 0 0 0
387 1 46.228 32.004 0 0 0 0
389 1 49.784 32.004 0 0 0 0
1187 1 46.228 32.004 3.556 0 0 0
1189 1 49.784 32.004 3.556 0 0 0
350 1 51.562 30.226 1.778 0 0 0
391 1 53.34 32.004 0 0 0 0
1191 1 53.34 32.004 3.556 0 0 0
352 1 55.118 30.226 1.778 0 0 0
393 1 56.896 32.004 0 0 0 0
1193 1 56.896 32.004 3.556 0 0 0
354 1 58.674 30.226 1.778 0 0 0
356 1 62.230000000000004 30.226 1.778 0 0 0
395 1 60.452 32.004 0 0 0 0
1195 1 60.452 32.004 3.556 0 0 0
358 1 65.786 30.226 1.778 0 0 0
397 1 64.008 32.004 0 0 0 0
1197 1 64.008 32.004 3.556 0 0 0
360 1 69.342 30.226 1.778 0 0 0
399 1 67.56400000000001 32.004 0 0 0 0
1199 1 67.56400000000001 32.004 3.556 0 0 0
362 1 1.778 33.782000000000004 1.778 0 0 0
401 1 0 35.56 0 0 0 0
402 1 1.778 37.338 1.778 0 0 0
403 1 3.556 35.56 0 0 0 0
1201 1 0 35.56 3.556 0 0 0
1203 1 3.556 35.56 3.556 0 0 0
364 1 5.334 33.782000000000004 1.778 0 0 0
404 1 5.334 37.338 1.778 0 0 0
405 1 7.112 35.56 0 0 0 0
1205 1 7.112 35.56 3.556 0 0 0
366 1 8.89 33.782000000000004 1.778 0 0 0
368 1 12.446 33.782000000000004 1.778 0 0 0
406 1 8.89 37.338 1.778 0 0 0
407 1 10.668 35.56 0 0 0 0
408 1 12.446 37.338 1.778 0 0 0
1207 1 10.668 35.56 3.556 0 0 0
370 1 16.002 33.782000000000004 1.778 0 0 0
409 1 14.224 35.56 0 0 0 0
410 1 16.002 37.338 1.778 0 0 0
1209 1 14.224 35.56 3.556 0 0 0
372 1 19.558 33.782000000000004 1.778 0 0 0
411 1 17.78 35.56 0 0 0 0
412 1 19.558 37.338 1.778 0 0 0
1211 1 17.78 35.56 3.556 0 0 0
374 1 23.114 33.782000000000004 1.778 0 0 0
413 1 21.336 35.56 0 0 0 0
414 1 23.114 37.338 1.778 0 0 0
415 1 24.892 35.56 0 0 0 0
1213 1 21.336 35.56 3.556 0 0 0
1215 1 24.892 35.56 3.556 0 0 0
376 1 26.67 33.782000000000004 1.778 0 0 0
416 1 26.67 37.338 1.778 0 0 0
417 1 28.448 35.56 0 0 0 0
1217 1 28.448 35.56 3.556 0 0 0
378 1 30.226 33.782000000000004 1.778 0 0 0
418 1 30.226 37.338 1.778 0 0 0
419 1 32.004 35.56 0 0 0 0
1219 1 32.004 35.56 3.556 0 0 0
380 1 33.782000000000004 33.782000000000004 1.778 0 0 0
382 1 37.338 33.782000000000004 1.778 0 0 0
420 1 33.782000000000004 37.338 1.778 0 0 0
421 1 35.56 35.56 0 0 0 0
422 1 37.338 37.338 1.778 0 0 0
1221 1 35.56 35.56 3.556 0 0 0
384 1 40.894 33.782000000000004 1.778 0 0 0
423 1 39.116 35.56 0 0 0 0
424 1 40.894 37.338 1.778 0 0 0
1223 1 39.116 35.56 3.556 0 0 0
386 1 44.45 33.782000000000004 1.778 0 0 0
425 1 42.672 35.56 0 0 0 0
426 1 44.45 37.338 1.778 0 0 0
1225 1 42.672 35.56 3.556 0 0 0
388 1 48.006 33.782000000000004 1.778 0 0 0
427 1 46.228 35.56 0 0 0 0
428 1 48.006 37.338 1.778 0 0 0
429 1 49.784 35.56 0 0 0 0
1227 1 46.228 35.56 3.556 0 0 0
1229 1 49.784 35.56 3.556 0 0 0
390 1 51.562 33.782000000000004 1.778 0 0 0
430 1 51.562 37.338 1.778 0 0 0
431 1 53.34 35.56 0 0 0 0
1231 1 53.34 35.56 3.556 0 0 0
392 1 55.118 33.782000000000004 1.778 0 0 0
432 1 55.118 37.338 1.778 0 0 0
433 1 56.896 35.56 0 0 0 0
1233 1 56.896 35.56 3.556 0 0 0
394 1 58.674 33.782000000000004 1.778 0 0 0
396 1 62.230000000000004 33.782000000000004 1.778 0 0 0
434 1 58.674 37.338 1.778 0 0 0
435 1 60.452 35.56 0 0 0 0
436 1 62.230000000000004 37.338 1.778 0 0 0
1235 1 60.452 35.56 3.556 0 0 0
398 1 65.786 33.782000000000004 1.778 0 0 0
437 1 64.008 35.56 0 0 0 0
438 1 65.786 37.338 1.778 0 0 0
1237 1 64.008 35.56 3.556 0 0 0
400 1 69.342 33.782000000000004 1.778 0 0 0
439 1 67.56400000000001 35.56 0 0 0 0
440 1 69.342 37.338 1.778 0 0 0
1239 1 67.56400000000001 35.56 3.556 0 0 0
441 1 0 39.116 0 0 0 0
442 1 1.778 40.894 1.778 0 0 0
443 1 3.556 39.116 0 0 0 0
1241 1 0 39.116 3.556 0 0 0
1243 1 3.556 39.116 3.556 0 0 0
444 1 5.334 40.894 1.778 0 0 0
445 1 7.112 39.116 0 0 0 0
1245 1 7.112 39.116 3.556 0 0 0
446 1 8.89 40.894 1.778 0 0 0
447 1 10.668 39.116 0 0 0 0
448 1 12.446 40.894 1.778 0 0 0
1247 1 10.668 39.116 3.556 0 0 0
449 1 14.224 39.116 0 0 0 0
450 1 16.002 40.894 1.778 0 0 0
1249 1 14.224 39.116 3.556 0 0 0
451 1 17.78 39.116 0 0 0 0
452 1 19.558 40.894 1.778 0 0 0
1251 1 17.78 39.116 3.556 0 0 0
453 1 21.336 39.116 0 0 0 0
454 1 23.114 40.894 1.778 0 0 0
455 1 24.892 39.116 0 0 0 0
1253 1 21.336 39.116 3.556 0 0 0
1255 1 24.892 39.116 3.556 0 0 0
456 1 26.67 40.894 1.778 0 0 0
457 1 28.448 39.116 0 0 0 0
1257 1 28.448 39.116 3.556 0 0 0
458 1 30.226 40.894 1.778 0 0 0
459 1 32.004 39.116 0 0 0 0
1259 1 32.004 39.116 3.556 0 0 0
460 1 33.782000000000004 40.894 1.778 0 0 0
461 1 35.56 39.116 0 0 0 0
462 1 37.338 40.894 1.778 0 0 0
1261 1 35.56 39.116 3.556 0 0 0
463 1 39.116 39.116 0 0 0 0
464 1 40.894 40.894 1.778 0 0 0
1263 1 39.116 39.116 3.556 0 0 0
465 1 42.672 39.116 0 0 0 0
466 1 44.45 40.894 1.778 0 0 0
1265 1 42.672 39.116 3.556 0 0 0
467 1 46.228 39.116 0 0 0 0
468 1 48.006 40.894 1.778 0 0 0
469 1 49.784 39.116 0 0 0 0
1267 1 46.228 39.116 3.556 0 0 0
1269 1 49.784 39.116 3.556 0 0 0
470 1 51.562 40.894 1.778 0 0 0
471 1 53.34 39.116 0 0 0 0
1271 1 53.34 39.116 3.556 0 0 0
472 1 55.118 40.894 1.778 0 0 0
473 1 56.896 39.116 0 0 0 0
1273 1 56.896 39.116 3.556 0 0 0
474 1 58.674 40.894 1.778 0 0 0
475 1 60.452 39.116 0 0 0 0
476 1 62.230000000000004 40.894 1.778 0 0 0
1275 1 60.452 39.116 3.556 0 0 0
477 1 64.008 39.116 0 0 0 0
478 1 65.786 40.894 1.778 0 0 0
1277 1 64.008 39.116 3.556 0 0 0
479 1 67.56400000000001 39.116 0 0 0 0
480 1 69.342 40.894 1.778 0 0 0
1279 1 67.56400000000001 39.116 3.556 0 0 0
481 1 0 42.672 0 0 0 0
482 1 1.778 44.45 1.778 0 0 0
483 1 3.556 42.672 0 0 0 0
1281 1 0 42.672 3.556 0 0 0
1283 1 3.556 42.672 3.556 0 0 0
484 1 5.334 44.45 1.778 0 0 0
485 1 7.112 42.672 0 0 0 0
1285 1 7.112 42.672 3.556 0 0 0
486 1 8.89 44.45 1.778 0 0 0
487 1 10.668 42.672 0 0 0 0
488 1 12.446 44.45 1.778 0 0 0
1287 1 10.668 42.672 3.556 0 0 0
489 1 14.224 42.672 0 0 0 0
490 1 16.002 44.45 1.778 0 0 0
1289 1 14.224 42.672 3.556 0 0 0
491 1 17.78 42.672 0 0 0 0
492 1 19.558 44.45 1.778 0 0 0
1291 1 17.78 42.672 3.556 0 0 0
493 1 21.336 42.672 0 0 0 0
494 1 23.114 44.45 1.778 0 0 0
495 1 24.892 42.672 0 0 0 0
1293 1 21.336 42.672 3.556 0 0 0
1295 1 24.892 42.672 3.556 0 0 0
496 1 26.67 44.45 1.778 0 0 0
497 1 28.448 42.672 0 0 0 0
1297 1 28.448 42.672 3.556 0 0 0
498 1 30.226 44.45 1.778 0 0 0
499 1 32.004 42.672 0 0 0 0
1299 1 32.004 42.672 3.556 0 0 0
500 1 33.782000000000004 44.45 1.778 0 0 0
501 1 35.56 42.672 0 0 0 0
502 1 37.338 44.45 1.778 0 0 0
1301 1 35.56 42.672 3.556 0 0 0
503 1 39.116 42.672 0 0 0 0
504 1 40.894 44.45 1.778 0 0 0
1303 1 39.116 42.672 3.556 0 0 0
505 1 42.672 42.672 0 0 0 0
506 1 44.45 44.45 1.778 0 0 0
1305 1 42.672 42.672 3.556 0 0 0
507 1 46.228 42.672 0 0 0 0
508 1 48.006 44.45 1.778 0 0 0
509 1 49.784 42.672 0 0 0 0
1307 1 46.228 42.672 3.556 0 0 0
1309 1 49.784 42.672 3.556 0 0 0
510 1 51.562 44.45 1.778 0 0 0
511 1 53.34 42.672 0 0 0 0
1311 1 53.34 42.672 3.556 0 0 0
512 1 55.118 44.45 1.778 0 0 0
513 1 56.896 42.672 0 0 0 0
1313 1 56.896 42.672 3.556 0 0 0
514 1 58.674 44.45 1.778 0 0 0
515 1 60.452 42.672 0 0 0 0
516 1 62.230000000000004 44.45 1.778 0 0 0
1315 1 60.452 42.672 3.556 0 0 0
517 1 64.008 42.672 0 0 0 0
518 1 65.786 44.45 1.778 0 0 0
1317 1 64.008 42.672 3.556 0 0 0
519 1 67.56400000000001 42.672 0 0 0 0
520 1 69.342 44.45 1.778 0 0 0
1319 1 67.56400000000001 42.672 3.556 0 0 0
521 1 0 46.228 0 0 0 0
522 1 1.778 48.006 1.778 0 0 0
523 1 3.556 46.228 0 0 0 0
561 1 0 49.784 0 0 0 0
563 1 3.556 49.784 0 0 0 0
1321 1 0 46.228 3.556 0 0 0
1323 1 3.556 46.228 3.556 0 0 0
1361 1 0 49.784 3.556 0 0 0
1363 1 3.556 49.784 3.556 0 0 0
524 1 5.334 48.006 1.778 0 0 0
525 1 7.112 46.228 0 0 0 0
565 1 7.112 49.784 0 0 0 0
1325 1 7.112 46.228 3.556 0 0 0
1365 1 7.112 49.784 3.556 0 0 0
527 1 10.668 46.228 0 0 0 0
528 1 12.446 48.006 1.778 0 0 0
567 1 10.668 49.784 0 0 0 0
1327 1 10.668 46.228 3.556 0 0 0
1367 1 10.668 49.784 3.556 0 0 0
529 1 14.224 46.228 0 0 0 0
530 1 16.002 48.006 1.778 0 0 0
569 1 14.224 49.784 0 0 0 0
1329 1 14.224 46.228 3.556 0 0 0
1369 1 14.224 49.784 3.556 0 0 0
531 1 17.78 46.228 0 0 0 0
532 1 19.558 48.006 1.778 0 0 0
571 1 17.78 49.784 0 0 0 0
1331 1 17.78 46.228 3.556 0 0 0
1371 1 17.78 49.784 3.556 0 0 0
533 1 21.336 46.228 0 0 0 0
534 1 23.114 48.006 1.778 0 0 0
535 1 24.892 46.228 0 0 0 0
573 1 21.336 49.784 0 0 0 0
575 1 24.892 49.784 0 0 0 0
1333 1 21.336 46.228 3.556 0 0 0
1335 1 24.892 46.228 3.556 0 0 0
1373 1 21.336 49.784 3.556 0 0 0
1375 1 24.892 49.784 3.556 0 0 0
536 1 26.67 48.006 1.778 0 0 0
537 1 28.448 46.228 0 0 0 0
577 1 28.448 49.784 0 0 0 0
1337 1 28.448 46.228 3.556 0 0 0
1377 1 28.448 49.784 3.556 0 0 0
538 1 30.226 48.006 1.778 0 0 0
539 1 32.004 46.228 0 0 0 0
579 1 32.004 49.784 0 0 0 0
1339 1 32.004 46.228 3.556 0 0 0
1379 1 32.004 49.784 3.556 0 0 0
540 1 33.782000000000004 48.006 1.778 0 0 0
541 1 35.56 46.228 0 0 0 0
542 1 37.338 48.006 1.778 0 0 0
581 1 35.56 49.784 0 0 0 0
1341 1 35.56 46.228 3.556 0 0 0
1381 1 35.56 49.784 3.556 0 0 0
543 1 39.116 46.228 0 0 0 0
544 1 40.894 48.006 1.778 0 0 0
583 1 39.116 49.784 0 0 0 0
1343 1 39.116 46.228 3.556 0 0 0
1383 1 39.116 49.784 3.556 0 0 0
545 1 42.672 46.228 0 0 0 0
546 1 44.45 48.006 1.778 0 0 0
585 1 42.672 49.784 0 0 0 0
1345 1 42.672 46.228 3.556 0 0 0
1385 1 42.672 49.784 3.556 0 0 0
547 1 46.228 46.228 0 0 0 0
548 1 48.006 48.006 1.778 0 0 0
549 1 49.784 46.228 0 0 0 0
587 1 46.228 49.784 0 0 0 0
589 1 49.784 49.784 0 0 0 0
1347 1 46.228 46.228 3.556 0 0 0
1349 1 49.784 46.228 3.556 0 0 0
1387 1 46.228 49.784 3.556 0 0 0
1389 1 49.784 49.784 3.556 0 0 0
550 1 51.562 48.006 1.778 0 0 0
551 1 53.34 46.228 0 0 0 0
591 1 53.34 49.784 0 0 0 0
1351 1 53.34 46.228 3.556 0 0 0
1391 1 53.34 49.784 3.556 0 0 0
552 1 55.118 48.006 1.778 0 0 0
553 1 56.896 46.228 0 0 0 0
593 1 56.896 49.784 0 0 0 0
1353 1 56.896 46.228 3.556 0 0 0
1393 1 56.896 49.784 3.556 0 0 0
554 1 58.674 48.006 1.778 0 0 0
555 1 60.452 46.228 0 0 0 0
556 1 62.230000000000004 48.006 1.778 0 0 0
595 1 60.452 49.784 0 0 0 0
1355 1 60.452 46.228 3.556 0 0 0
1395 1 60.452 49.784 3.556 0 0 0
557 1 64.008 46.228 0 0 0 0
558 1 65.786 48.006 1.778 0 0 0
597 1 64.008 49.784 0 0 0 0
1357 1 64.008 46.228 3.556 0 0 0
1397 1 64.008 49.784 3.556 0 0 0
559 1 67.56400000000001 46.228 0 0 0 0
560 1 69.342 48.006 1.778 0 0 0
599 1 67.56400000000001 49.784 0 0 0 0
1359 1 67.56400000000001 46.228 3.556 0 0 0
1399 1 67.56400000000001 49.784 3.556 0 0 0
562 1 1.778 51.562 1.778 0 0 0
601 1 0 53.34 0 0 0 0
603 1 3.556 53.34 0 0 0 0
1401 1 0 53.34 3.556 0 0 0
1403 1 3.556 53.34 3.556 0 0 0
564 1 5.334 51.562 1.778 0 0 0
605 1 7.112 53.34 0 0 0 0
1405 1 7.112 53.34 3.556 0 0 0
15981 3 7.408333333333333 50.376666666666665 3.556 0 0 0
566 1 8.89 51.562 1.778 0 0 0
568 1 12.446 51.562 1.778 0 0 0
607 1 10.668 53.34 0 0 0 0
1407 1 10.668 53.34 3.556 0 0 0
570 1 16.002 51.562 1.778 0 0 0
609 1 14.224 53.34 0 0 0 0
1409 1 14.224 53.34 3.556 0 0 0
572 1 19.558 51.562 1.778 0 0 0
611 1 17.78 53.34 0 0 0 0
1411 1 17.78 53.34 3.556 0 0 0
574 1 23.114 51.562 1.778 0 0 0
613 1 21.336 53.34 0 0 0 0
615 1 24.892 53.34 0 0 0 0
1413 1 21.336 53.34 3.556 0 0 0
1415 1 24.892 53.34 3.556 0 0 0
576 1 26.67 51.562 1.778 0 0 0
617 1 28.448 53.34 0 0 0 0
1417 1 28.448 53.34 3.556 0 0 0
578 1 30.226 51.562 1.778 0 0 0
619 1 32.004 53.34 0 0 0 0
1419 1 32.004 53.34 3.556 0 0 0
580 1 33.782000000000004 51.562 1.778 0 0 0
582 1 37.338 51.562 1.778 0 0 0
621 1 35.56 53.34 0 0 0 0
1421 1 35.56 53.34 3.556 0 0 0
584 1 40.894 51.562 1.778 0 0 0
623 1 39.116 53.34 0 0 0 0
1423 1 39.116 53.34 3.556 0 0 0
586 1 44.45 51.562 1.778 0 0 0
625 1 42.672 53.34 0 0 0 0
1425 1 42.672 53.34 3.556 0 0 0
588 1 48.006 51.562 1.778 0 0 0
627 1 46.228 53.34 0 0 0 0
629 1 49.784 53.34 0 0 0 0
1427 1 46.228 53.34 3.556 0 0 0
1429 1 49.784 53.34 3.556 0 0 0
590 1 51.562 51.562 1.778 0 0 0
631 1 53.34 53.34 0 0 0 0
1431 1 53.34 53.34 3.556 0 0 0
592 1 55.118 51.562 1.778 0 0 0
633 1 56.896 53.34 0 0 0 0
1433 1 56.896 53.34 3.556 0 0 0
594 1 58.674 51.562 1.778 0 0 0
596 1 62.230000000000004 51.562 1.778 0 0 0
635 1 60.452 53.34 0 0 0 0
1435 1 60.452 53.34 3.556 0 0 0
598 1 65.786 51.562 1.778 0 0 0
637 1 64.008 53.34 0 0 0 0
1437 1 64.008 53.34 3.556 0 0 0
600 1 69.342 51.562 1.778 0 0 0
639 1 67.56400000000001 53.34 0 0 0 0
1439 1 67.56400000000001 53.34 3.556 0 0 0
602 1 1.778 55.118 1.778 0 0 0
641 1 0 56.896 0 0 0 0
643 1 3.556 56.896 0 0 0 0
1441 1 0 56.896 3.556 0 0 0
1443 1 3.556 56.896 3.556 0 0 0
604 1 5.334 55.118 1.778 0 0 0
645 1 7.112 56.896 0 0 0 0
1445 1 7.112 56.896 3.556 0 0 0
606 1 8.89 55.118 1.778 0 0 0
608 1 12.446 55.118 1.778 0 0 0
647 1 10.668 56.896 0 0 0 0
1447 1 10.668 56.896 3.556 0 0 0