ITEM: TIMESTEP
0
ITEM: NUMBER OF ATOMS
16000
ITEM: BOX BOUNDS pp pp pp
0.0000000000000000e+00 7.0039999999999992e+01
0.0000000000000000e+00 7.0039999999999992e+01
0.0000000000000000e+00 7.0039999999999992e+01
ITEM: ATOMS id type xs ys zs
1 1 0 0 0
2 1 0.025 0.025 0.025
3 1 0.05 0 0
41 1 0 0.05 0
43 1 0.05 0.05 0
801 1 0 0 0.05
803 1 0.05 0 0.05
841 1 0 0.05 0.05
843 1 0.05 0.05 0.05
4 1 0.075 0.025 0.025
5 1 0.1 0 0
45 1 0.1 0.05 0
805 1 0.1 0 0.05
845 1 0.1 0.05 0.05
6 1 0.125 0.025 0.025
7 1 0.15 0 0
8 1 0.175 0.025 0.025
47 1 0.15 0.05 0
807 1 0.15 0 0.05
847 1 0.15 0.05 0.05
9 1 0.2 0 0
10 1 0.225 0.025 0.025
49 1 0.2 0.05 0
809 1 0.2 0 0.05
849 1 0.2 0.05 0.05
11 1 0.25 0 0
12 1 0.275 0.025 0.025
51 1 0.25 0.05 0
811 1 0.25 0 0.05
851 1 0.25 0.05 0.05
13 1 0.3 0 0
14 1 0.325 0.025 0.025
15 1 0.35 0 0
53 1 0.3 0.05 0
55 1 0.35 0.05 0
813 1 0.3 0 0.05
815 1 0.35 0 0.05
853 1 0.3 0.05 0.05
855 1 0.35 0.05 0.05
16 1 0.375 0.025 0.025
17 1 0.4 0 0
57 1 0.4 0.05 0
817 1 0.4 0 0.05
857 1 0.4 0.05 0.05
18 1 0.425 0.025 0.025
19 1 0.45 0 0
59 1 0.45 0.05 0
819 1 0.45 0 0.05
859 1 0.45 0.05 0.05
20 1 0.475 0.025 0.025
21 1 0.5 0 0
22 1 0.525 0.025 0.025
61 1 0.5 0.05 0
821 1 0.5 0 0.05
861 1 0.5 0.05 0.05
23 1 0.55 0 0
24 1 0.575 0.025 0.025
63 1 0.55 0.05 0
823 1 0.55 0 0.05
863 1 0.55 0.05 0.05
25 1 0.6 0 0
26 1 0.625 0.025 0.025
65 1 0.6 0.05 0
825 1 0.6 0 0.05
865 1 0.6 0.05 0.05
27 1 0.65 0 0
28 1 0.675 0.025 0.025
29 1 0.7 0 0
67 1 0.65 0.05 0
69 1 0.7 0.05 0
827 1 0.65 0 0.05
829 1 0.7 0 0.05
867 1 0.65 0.05 0.05
869 1 0.7 0.05 0.05
30 1 0.725 0.025 0.025
31 1 0.75 0 0
71 1 0.75 0.05 0
831 1 0.75 0 0.05
871 1 0.75 0.05 0.05
32 1 0.775 0.025 0.025
33 1 0.8 0 0
73 1 0.8 0.05 0
833 1 0.8 0 0.05
873 1 0.8 0.05 0.05
34 1 0.825 0.025 0.025
35 1 0.85 0 0
36 1 0.875 0.025 0.025
75 1 0.85 0.05 0
835 1 0.85 0 0.05
875 1 0.85 0.05 0.05
37 1 0.9 0 0
38 1 0.925 0.025 0.025
77 1 0.9 0.05 0
837 1 0.9 0 0.05
877 1 0.9 0.05 0.05
39 1 0.95 0 0
40 1 0.975 0.025 0.025
79 1 0.95 0.05 0
839 1 0.95 0 0.05
879 1 0.95 0.05 0.05
42 1 0.025 0.075 0.025
81 1 0 0.1 0
83 1 0.05 0.1 0
881 1 0 0.1 0.05
883 1 0.05 0.1 0.05
44 1 0.075 0.075 0.025
85 1 0.1 0.1 0
885 1 0.1 0.1 0.05
46 1 0.125 0.075 0.025
48 1 0.175 0.075 0.025
87 1 0.15 0.1 0
887 1 0.15 0.1 0.05
50 1 0.225 0.075 0.025
89 1 0.2 0.1 0
889 1 0.2 0.1 0.05
52 1 0.275 0.075 0.025
91 1 0.25 0.1 0
891 1 0.25 0.1 0.05
54 1 0.325 0.075 0.025
93 1 0.3 0.1 0
95 1 0.35 0.1 0
893 1 0.3 0.1 0.05
895 1 0.35 0.1 0.05
56 1 0.375 0.075 0.025
97 1 0.4 0.1 0
897 1 0.4 0.1 0.05
58 1 0.425 0.075 0.025
99 1 0.45 0.1 0
899 1 0.45 0.1 0.05
60 1 0.475 0.075 0.025
62 1 0.525 0.075 0.025
101 1 0.5 0.1 0
901 1 0.5 0.1 0.05
64 1 0.575 0.075 0.025
103 1 0.55 0.1 0
903 1 0.55 0.1 0.05
66 1 0.625 0.075 0.025
105 1 0.6 0.1 0
905 1 0.6 0.1 0.05
68 1 0.675 0.075 0.025
107 1 0.65 0.1 0
109 1 0.7 0.1 0
907 1 0.65 0.1 0.05
909 1 0.7 0.1 0.05
70 1 0.725 0.075 0.025
111 1 0.75 0.1 0
911 1 0.75 0.1 0.05
72 1 0.775 0.075 0.025
113 1 0.8 0.1 0
913 1 0.8 0.1 0.05
74 1 0.825 0.075 0.025
76 1 0.875 0.075 0.025
115 1 0.85 0.1 0
915 1 0.85 0.1 0.05
78 1 0.925 0.075 0.025
117 1 0.9 0.1 0
917 1 0.9 0.1 0.05
80 1 0.975 0.075 0.025
119 1 0.95 0.1 0
919 1 0.95 0.1 0.05
82 1 0.025 0.125 0.025
121 1 0 0.15 0
122 1 0.025 0.175 0.025
123 1 0.05 0.15 0
921 1 0 0.15 0.05
923 1 0.05 0.15 0.05
84 1 0.075 0.125 0.025
124 1 0.075 0.175 0.025
125 1 0.1 0.15 0
925 1 0.1 0.15 0.05
86 1 0.125 0.125 0.025
88 1 0.175 0.125 0.025
126 1 0.125 0.175 0.025
127 1 0.15 0.15 0
128 1 0.175 0.175 0.025
927 1 0.15 0.15 0.05
90 1 0.225 0.125 0.025
129 1 0.2 0.15 0
130 1 0.225 0.175 0.025
929 1 0.2 0.15 0.05
92 1 0.275 0.125 0.025
131 1 0.25 0.15 0
132 1 0.275 0.175 0.025
931 1 0.25 0.15 0.05
94 1 0.325 0.125 0.025
133 1 0.3 0.15 0
134 1 0.325 0.175 0.025
135 1 0.35 0.15 0
933 1 0.3 0.15 0.05
935 1 0.35 0.15 0.05
96 1 0.375 0.125 0.025
136 1 0.375 0.175 0.025
137 1 0.4 0.15 0
937 1 0.4 0.15 0.05
98 1 0.425 0.125 0.025
138 1 0.425 0.175 0.025
139 1 0.45 0.15 0
939 1 0.45 0.15 0.05
100 1 0.475 0.125 0.025
102 1 0.525 0.125 0.025
140 1 0.475 0.175 0.025
141 1 0.5 0.15 0
142 1 0.525 0.175 0.025
941 1 0.5 0.15 0.05
104 1 0.575 0.125 0.025
143 1 0.55 0.15 0
144 1 0.575 0.175 0.025
943 1 0.55 0.15 0.05
106 1 0.625 0.125 0.025
145 1 0.6 0.15 0
146 1 0.625 0.175 0.025
945 1 0.6 0.15 0.05
108 1 0.675 0.125 0.025
147 1 0.65 0.15 0
148 1 0.675 0.175 0.025
149 1 0.7 0.15 0
947 1 0.65 0.15 0.05
949 1 0.7 0.15 0.05
110 1 0.725 0.125 0.025
150 1 0.725 0.175 0.025
151 1 0.75 0.15 0
951 1 0.75 0.15 0.05
112 1 0.775 0.125 0.025
152 1 0.775 0.175 0.025
153 1 0.8 0.15 0
953 1 0.8 0.15 0.05
114 1 0.825 0.125 0.025
116 1 0.875 0.125 0.025
154 1 0.825 0.175 0.025
155 1 0.85 0.15 0
156 1 0.875 0.175 0.025
955 1 0.85 0.15 0.05
118 1 0.925 0.125 0.025
157 1 0.9 0.15 0
158 1 0.925 0.175 0.025
957 1 0.9 0.15 0.05
120 1 0.975 0.125 0.025
159 1 0.95 0.15 0
160 1 0.975 0.175 0.025
959 1 0.95 0.15 0.05
161 1 0 0.2 0
162 1 0.025 0.225 0.025
163 1 0.05 0.2 0
961 1 0 0.2 0.05
963 1 0.05 0.2 0.05
164 1 0.075 0.225 0.025
165 1 0.1 0.2 0
965 1 0.1 0.2 0.05
166 1 0.125 0.225 0.025
167 1 0.15 0.2 0
168 1 0.175 0.225 0.025
967 1 0.15 0.2 0.05
169 1 0.2 0.2 0
170 1 0.225 0.225 0.025
969 1 0.2 0.2 0.05
171 1 0.25 0.2 0
172 1 0.275 0.225 0.025
971 1 0.25 0.2 0.05
173 1 0.3 0.2 0
174 1 0.325 0.225 0.025
175 1 0.35 0.2 0
973 1 0.3 0.2 0.05
975 1 0.35 0.2 0.05
176 1 0.375 0.225 0.025
177 1 0.4 0.2 0
977 1 0.4 0.2 0.05
178 1 0.425 0.225 0.025
179 1 0.45 0.2 0
979 1 0.45 0.2 0.05
180 1 0.475 0.225 0.025
181 1 0.5 0.2 0
182 1 0.525 0.225 0.025
981 1 0.5 0.2 0.05
183 1 0.55 0.2 0
184 1 0.575 0.225 0.025
983 1 0.55 0.2 0.05
185 1 0.6 0.2 0
186 1 0.625 0.225 0.025
985 1 0.6 0.2 0.05
187 1 0.65 0.2 0
188 1 0.675 0.225 0.025
189 1 0.7 0.2 0
987 1 0.65 0.2 0.05
989 1 0.7 0.2 0.05
190 1 0.725 0.225 0.025
191 1 0.75 0.2 0
991 1 0.75 0.2 0.05
192 1 0.775 0.225 0.025
193 1 0.8 0.2 0
993 1 0.8 0.2 0.05
194 1 0.825 0.225 0.025
195 1 0.85 0.2 0
196 1 0.875 0.225 0.025
995 1 0.85 0.2 0.05
197 1 0.9 0.2 0
198 1 0.925 0.225 0.025
997 1 0.9 0.2 0.05
199 1 0.95 0.2 0
200 1 0.975 0.225 0.025
999 1 0.95 0.2 0.05
201 1 0 0.25 0
202 1 0.025 0.275 0.025
203 1 0.05 0.25 0
1001 1 0 0.25 0.05
1003 1 0.05 0.25 0.05
204 1 0.075 0.275 0.025
205 1 0.1 0.25 0
1005 1 0.1 0.25 0.05
206 1 0.125 0.275 0.025
207 1 0.15 0.25 0
208 1 0.175 0.275 0.025
1007 1 0.15 0.25 0.05
209 1 0.2 0.25 0
210 1 0.225 0.275 0.025
1009 1 0.2 0.25 0.05
211 1 0.25 0.25 0
212 1 0.275 0.275 0.025
1011 1 0.25 0.25 0.05
213 1 0.3 0.25 0
214 1 0.325 0.275 0.025
215 1 0.35 0.25 0
1013 1 0.3 0.25 0.05
1015 1 0.35 0.25 0.05
216 1 0.375 0.275 0.025
217 1 0.4 0.25 0
1017 1 0.4 0.25 0.05
218 1 0.425 0.275 0.025
219 1 0.45 0.25 0
1019 1 0.45 0.25 0.05
220 1 0.475 0.275 0.025
221 1 0.5 0.25 0
222 1 0.525 0.275 0.025
1021 1 0.5 0.25 0.05
223 1 0.55 0.25 0
224 1 0.575 0.275 0.025
1023 1 0.55 0.25 0.05
225 1 0.6 0.25 0
226 1 0.625 0.275 0.025
1025 1 0.6 0.25 0.05
227 1 0.65 0.25 0
228 1 0.675 0.275 0.025
229 1 0.7 0.25 0
1027 1 0.65 0.25 0.05
1029 1 0.7 0.25 0.05
230 1 0.725 0.275 0.025
231 1 0.75 0.25 0
1031 1 0.75 0.25 0.05
232 1 0.775 0.275 0.025
233 1 0.8 0.25 0
1033 1 0.8 0.25 0.05
234 1 0.825 0.275 0.025
235 1 0.85 0.25 0
236 1 0.875 0.275 0.025
1035 1 0.85 0.25 0.05
237 1 0.9 0.25 0
238 1 0.925 0.275 0.025
1037 1 0.9 0.25 0.05
239 1 0.95 0.25 0
240 1 0.975 0.275 0.025
1039 1 0.95 0.25 0.05
241 1 0 0.3 0
242 1 0.025 0.325 0.025
243 1 0.05 0.3 0
281 1 0 0.35 0
283 1 0.05 0.35 0
1041 1 0 0.3 0.05
1043 1 0.05 0.3 0.05
1081 1 0 0.35 0.05
1083 1 0.05 0.35 0.05
244 1 0.075 0.325 0.025
245 1 0.1 0.3 0
285 1 0.1 0.35 0
1045 1 0.1 0.3 0.05
1085 1 0.1 0.35 0.05
246 1 0.125 0.325 0.025
247 1 0.15 0.3 0
248 1 0.175 0.325 0.025
287 1 0.15 0.35 0
1047 1 0.15 0.3 0.05
1087 1 0.15 0.35 0.05
249 1 0.2 0.3 0
250 1 0.225 0.325 0.025
289 1 0.2 0.35 0
1049 1 0.2 0.3 0.05
1089 1 0.2 0.35 0.05
251 1 0.25 0.3 0
252 1 0.275 0.325 0.025
291 1 0.25 0.35 0
1051 1 0.25 0.3 0.05
1091 1 0.25 0.35 0.05
253 1 0.3 0.3 0
254 1 0.325 0.325 0.025
255 1 0.35 0.3 0
293 1 0.3 0.35 0
295 1 0.35 0.35 0
1053 1 0.3 0.3 0.05
1055 1 0.35 0.3 0.05
1093 1 0.3 0.35 0.05
1095 1 0.35 0.35 0.05
256 1 0.375 0.325 0.025
257 1 0.4 0.3 0
297 1 0.4 0.35 0
1057 1 0.4 0.3 0.05
1097 1 0.4 0.35 0.05
258 1 0.425 0.325 0.025
259 1 0.45 0.3 0
299 1 0.45 0.35 0
1059 1 0.45 0.3 0.05
1099 1 0.45 0.35 0.05
260 1 0.475 0.325 0.025
261 1 0.5 0.3 0
262 1 0.525 0.325 0.025
301 1 0.5 0.35 0
1061 1 0.5 0.3 0.05
1101 1 0.5 0.35 0.05
263 1 0.55 0.3 0
264 1 0.575 0.325 0.025
303 1 0.55 0.35 0
1063 1 0.55 0.3 0.05
1103 1 0.55 0.35 0.05
265 1 0.6 0.3 0
266 1 0.625 0.325 0.025
305 1 0.6 0.35 0
1065 1 0.6 0.3 0.05
1105 1 0.6 0.35 0.05
267 1 0.65 0.3 0
268 1 0.675 0.325 0.025
269 1 0.7 0.3 0
307 1 0.65 0.35 0
309 1 0.7 0.35 0
1067 1 0.65 0.3 0.05
1069 1 0.7 0.3 0.05
1107 1 0.65 0.35 0.05
1109 1 0.7 0.35 0.05
270 1 0.725 0.325 0.025
271 1 0.75 0.3 0
311 1 0.75 0.35 0
1071 1 0.75 0.3 0.05
1111 1 0.75 0.35 0.05
272 1 0.775 0.325 0.025
273 1 0.8 0.3 0
313 1 0.8 0.35 0
1073 1 0.8 0.3 0.05
1113 1 0.8 0.35 0.05
274 1 0.825 0.325 0.025
275 1 0.85 0.3 0
276 1 0.875 0.325 0.025
315 1 0.85 0.35 0
1075 1 0.85 0.3 0.05
1115 1 0.85 0.35 0.05
277 1 0.9 0.3 0
278 1 0.925 0.325 0.025
317 1 0.9 0.35 0
1077 1 0.9 0.3 0.05
1117 1 0.9 0.35 0.05
279 1 0.95 0.3 0
280 1 0.975 0.325 0.025
319 1 0.95 0.35 0
1079 1 0.95 0.3 0.05
1119 1 0.95 0.35 0.05
282 1 0.025 0.375 0.025
321 1 0 0.4 0
323 1 0.05 0.4 0
1121 1 0 0.4 0.05
1123 1 0.05 0.4 0.05
284 1 0.075 0.375 0.025
325 1 0.1 0.4 0
1125 1 0.1 0.4 0.05
286 1 0.125 0.375 0.025
288 1 0.175 0.375 0.025
327 1 0.15 0.4 0
1127 1 0.15 0.4 0.05
290 1 0.225 0.375 0.025
329 1 0.2 0.4 0
1129 1 0.2 0.4 0.05
292 1 0.275 0.375 0.025
331 1 0.25 0.4 0
1131 1 0.25 0.4 0.05
294 1 0.325 0.375 0.025
333 1 0.3 0.4 0
335 1 0.35 0.4 0
1133 1 0.3 0.4 0.05
1135 1 0.35 0.4 0.05
296 1 0.375 0.375 0.025
337 1 0.4 0.4 0
1137 1 0.4 0.4 0.05
298 1 0.425 0.375 0.025
339 1 0.45 0.4 0
1139 1 0.45 0.4 0.05
300 1 0.475 0.375 0.025
302 1 0.525 0.375 0.025
341 1 0.5 0.4 0
1141 1 0.5 0.4 0.05
304 1 0.575 0.375 0.025
343 1 0.55 0.4 0
1143 1 0.55 0.4 0.05
306 1 0.625 0.375 0.025
345 1 0.6 0.4 0
1145 1 0.6 0.4 0.05
308 1 0.675 0.375 0.025
347 1 0.65 0.4 0
349 1 0.7 0.4 0
1147 1 0.65 0.4 0.05
1149 1 0.7 0.4 0.05
310 1 0.725 0.375 0.025
351 1 0.75 0.4 0
1151 1 0.75 0.4 0.05
312 1 0.775 0.375 0.025
353 1 0.8 0.4 0
1153 1 0.8 0.4 0.05
314 1 0.825 0.375 0.025
316 1 0.875 0.375 0.025
355 1 0.85 0.4 0
1155 1 0.85 0.4 0.05
318 1 0.925 0.375 0.025
357 1 0.9 0.4 0
1157 1 0.9 0.4 0.05
320 1 0.975 0.375 0.025
359 1 0.95 0.4 0
1159 1 0.95 0.4 0.05
322 1 0.025 0.425 0.025
361 1 0 0.45 0
363 1 0.05 0.45 0
1161 1 0 0.45 0.05
1163 1 0.05 0.45 0.05
324 1 0.075 0.425 0.025
365 1 0.1 0.45 0
1165 1 0.1 0.45 0.05
326 1 0.125 0.425 0.025
328 1 0.175 0.425 0.025
367 1 0.15 0.45 0
1167 1 0.15 0.45 0.05
330 1 0.225 0.425 0.025
369 1 0.2 0.45 0
1169 1 0.2 0.45 0.05
332 1 0.275 0.425 0.025
371 1 0.25 0.45 0
1171 1 0.25 0.45 0.05
334 1 0.325 0.425 0.025
373 1 0.3 0.45 0
375 1 0.35 0.45 0
1173 1 0.3 0.45 0.05
1175 1 0.35 0.45 0.05
336 1 0.375 0.425 0.025
377 1 0.4 0.45 0
1177 1 0.4 0.45 0.05
338 1 0.425 0.425 0.025
379 1 0.45 0.45 0
1179 1 0.45 0.45 0.05
340 1 0.475 0.425 0.025
342 1 0.525 0.425 0.025
381 1 0.5 0.45 0
1181 1 0.5 0.45 0.05
344 1 0.575 0.425 0.025
383 1 0.55 0.45 0
1183 1 0.55 0.45 0.05
346 1 0.625 0.425 0.025
385 1 0.6 0.45 0
1185 1 0.6 0.45 0.05
348 1 0.675 0.425 0.025
387 1 0.65 0.45 0
389 1 0.7 0.45 0
1187 1 0.65 0.45 0.05
1189 1 0.7 0.45 0.05
350 1 0.725 0.425 0.025
391 1 0.75 0.45 0
1191 1 0.75 0.45 0.05
352 1 0.775 0.425 0.025
393 1 0.8 0.45 0
1193 1 0.8 0.45 0.05
354 1 0.825 0.425 0.025
356 1 0.875 0.425 0.025
395 1 0.85 0.45 0
1195 1 0.85 0.45 0.05
358 1 0.925 0.425 0.025
397 1 0.9 0.45 0
1197 1 0.9 0.45 0.05
360 1 0.975 0.425 0.025
399 1 0.95 0.45 0
1199 1 0.95 0.45 0.05
362 1 0.025 0.475 0.025
401 1 0 0.5 0
402 1 0.025 0.525 0.025
403 1 0.05 0.5 0
1201 1 0 0.5 0.05
1203 1 0.05 0.5 0.05
364 1 0.075 0.475 0.025
404 1 0.075 0.525 0.025
405 1 0.1 0.5 0
1205 1 0.1 0.5 0.05
366 1 0.125 0.475 0.025
368 1 0.175 0.475 0.025
406 1 0.125 0.525 0.025
407 1 0.15 0.5 0
408 1 0.175 0.525 0.025
1207 1 0.15 0.5 0.05
370 1 0.225 0.475 0.025
409 1 0.2 0.5 0
410 1 0.225 0.525 0.025
1209 1 0.2 0.5 0.05
372 1 0.275 0.475 0.025
411 1 0.25 0.5 0
412 1 0.275 0.525 0.025
1211 1 0.25 0.5 0.05
374 1 0.325 0.475 0.025
413 1 0.3 0.5 0
414 1 0.325 0.525 0.025
415 1 0.35 0.5 0
1213 1 0.3 0.5 0.05
1215 1 0.35 0.5 0.05
376 1 0.375 0.475 0.025
416 1 0.375 0.525 0.025
417 1 0.4 0.5 0
1217 1 0.4 0.5 0.05
378 1 0.425 0.475 0.025
418 1 0.425 0.525 0.025
419 1 0.45 0.5 0
1219 1 0.45 0.5 0.05
380 1 0.475 0.475 0.025
382 1 0.525 0.475 0.025
420 1 0.475 0.525 0.025
421 1 0.5 0.5 0
422 1 0.525 0.525 0.025
1221 1 0.5 0.5 0.05
384 1 0.575 0.475 0.025
423 1 0.55 0.5 0
424 1 0.575 0.525 0.025
1223 1 0.55 0.5 0.05
386 1 0.625 0.475 0.025
425 1 0.6 0.5 0
426 1 0.625 0.525 0.025
1225 1 0.6 0.5 0.05
388 1 0.675 0.475 0.025
427 1 0.65 0.5 0
428 1 0.675 0.525 0.025
429 1 0.7 0.5 0
1227 1 0.65 0.5 0.05
1229 1 0.7 0.5 0.05
390 1 0.725 0.475 0.025
430 1 0.725 0.525 0.025
431 1 0.75 0.5 0
1231 1 0.75 0.5 0.05
392 1 0.775 0.475 0.025
432 1 0.775 0.525 0.025
433 1 0.8 0.5 0
1233 1 0.8 0.5 0.05
394 1 0.825 0.475 0.025
396 1 0.875 0.475 0.025
434 1 0.825 0.525 0.025
435 1 0.85 0.5 0
436 1 0.875 0.525 0.025
1235 1 0.85 0.5 0.05
398 1 0.925 0.475 0.025
437 1 0.9 0.5 0
438 1 0.925 0.525 0.025
1237 1 0.9 0.5 0.05
400 1 0.975 0.475 0.025
439 1 0.95 0.5 0
440 1 0.975 0.525 0.025
1239 1 0.95 0.5 0.05
441 1 0 0.55 0
442 1 0.025 0.575 0.025
443 1 0.05 0.55 0
1241 1 0 0.55 0.05
1243 1 0.05 0.55 0.05
444 1 0.075 0.575 0.025
445 1 0.1 0.55 0
1245 1 0.1 0.55 0.05
446 1 0.125 0.575 0.025
447 1 0.15 0.55 0
448 1 0.175 0.575 0.025
1247 1 0.15 0.55 0.05
449 1 0.2 0.55 0
450 1 0.225 0.575 0.025
1249 1 0.2 0.55 0.05
451 1 0.25 0.55 0
452 1 0.275 0.575 0.025
1251 1 0.25 0.55 0.05
453 1 0.3 0.55 0
454 1 0.325 0.575 0.025
455 1 0.35 0.55 0
1253 1 0.3 0.55 0.05
1255 1 0.35 0.55 0.05
456 1 0.375 0.575 0.025
457 1 0.4 0.55 0
1257 1 0.4 0.55 0.05
458 1 0.425 0.575 0.025
459 1 0.45 0.55 0
1259 1 0.45 0.55 0.05
460 1 0.475 0.575 0.025
461 1 0.5 0.55 0
462 1 0.525 0.575 0.025
1261 1 0.5 0.55 0.05
463 1 0.55 0.55 0
464 1 0.575 0.575 0.025
1263 1 0.55 0.55 0.05
465 1 0.6 0.55 0
466 1 0.625 0.575 0.025
1265 1 0.6 0.55 0.05
467 1 0.65 0.55 0
468 1 0.675 0.575 0.025
469 1 0.7 0.55 0
1267 1 0.65 0.55 0.05
1269 1 0.7 0.55 0.05
470 1 0.725 0.575 0.025
471 1 0.75 0.55 0
1271 1 0.75 0.55 0.05
472 1 0.775 0.575 0.025
473 1 0.8 0.55 0
1273 1 0.8 0.55 0.05
474 1 0.825 0.575 0.025
475 1 0.85 0.55 0
476 1 0.875 0.575 0.025
1275 1 0.85 0.55 0.05
477 1 0.9 0.55 0
478 1 0.925 0.575 0.025
1277 1 0.9 0.55 0.05
479 1 0.95 0.55 0
480 1 0.975 0.575 0.025
1279 1 0.95 0.55 0.05
481 1 0 0.6 0
482 1 0.025 0.625 0.025
483 1 0.05 0.6 0
1281 1 0 0.6 0.05
1283 1 0.05 0.6 0.05
484 1 0.075 0.625 0.025
485 1 0.1 0.6 0
1285 1 0.1 0.6 0.05
486 1 0.125 0.625 0.025
487 1 0.15 0.6 0
488 1 0.175 0.625 0.025
1287 1 0.15 0.6 0.05
489 1 0.2 0.6 0
490 1 0.225 0.625 0.025
1289 1 0.2 0.6 0.05
491 1 0.25 0.6 0
492 1 0.275 0.625 0.025
1291 1 0.25 0.6 0.05
493 1 0.3 0.6 0
494 1 0.325 0.625 0.025
495 1 0.35 0.6 0
1293 1 0.3 0.6 0.05
1295 1 0.35 0.6 0.05
496 1 0.375 0.625 0.025
497 1 0.4 0.6 0
1297 1 0.4 0.6 0.05
498 1 0.425 0.625 0.025
499 1 0.45 0.6 0
1299 1 0.45 0.6 0.05
500 1 0.475 0.625 0.025
501 1 0.5 0.6 0
502 1 0.525 0.625 0.025
1301 1 0.5 0.6 0.05
503 1 0.55 0.6 0
504 1 0.575 0.625 0.025
1303 1 0.55 0.6 0.05
505 1 0.6 0.6 0
506 1 0.625 0.625 0.025
1305 1 0.6 0.6 0.05
507 1 0.65 0.6 0
508 1 0.675 0.625 0.025
509 1 0.7 0.6 0
1307 1 0.65 0.6 0.05
1309 1 0.7 0.6 0.05
510 1 0.725 0.625 0.025
511 1 0.75 0.6 0
1311 1 0.75 0.6 0.05
512 1 0.775 0.625 0.025
513 1 0.8 0.6 0
1313 1 0.8 0.6 0.05
514 1 0.825 0.625 0.025
515 1 0.85 0.6 0
516 1 0.875 0.625 0.025
1315 1 0.85 0.6 0.05
517 1 0.9 0.6 0
518 1 0.925 0.625 0.025
1317 1 0.9 0.6 0.05
519 1 0.95 0.6 0
520 1 0.975 0.625 0.025
1319 1 0.95 0.6 0.05
521 1 0 0.65 0
522 1 0.025 0.675 0.025
523 1 0.05 0.65 0
561 1 0 0.7 0
563 1 0.05 0.7 0
1321 1 0 0.65 0.05
1323 1 0.05 0.65 0.05
1361 1 0 0.7 0.05
1363 1 0.05 0.7 0.05
524 1 0.075 0.675 0.025
525 1 0.1 0.65 0
565 1 0.1 0.7 0
1325 1 0.1 0.65 0.05
1365 1 0.1 0.7 0.05
526 1 0.125 0.675 0.025
527 1 0.15 0.65 0
528 1 0.175 0.675 0.025
567 1 0.15 0.7 0
1327 1 0.15 0.65 0.05
1367 1 0.15 0.7 0.05
529 1 0.2 0.65 0
530 1 0.225 0.675 0.025
569 1 0.2 0.7 0
1329 1 0.2 0.65 0.05
1369 1 0.2 0.7 0.05
531 1 0.25 0.65 0
532 1 0.275 0.675 0.025
571 1 0.25 0.7 0
1331 1 0.25 0.65 0.05
1371 1 0.25 0.7 0.05
533 1 0.3 0.65 0
534 1 0.325 0.675 0.025
535 1 0.35 0.65 0
573 1 0.3 0.7 0
575 1 0.35 0.7 0
1333 1 0.3 0.65 0.05
1335 1 0.35 0.65 0.05
1373 1 0.3 0.7 0.05
1375 1 0.35 0.7 0.05
536 1 0.375 0.675 0.025
537 1 0.4 0.65 0
577 1 0.4 0.7 0
1337 1 0.4 0.65 0.05
1377 1 0.4 0.7 0.05
538 1 0.425 0.675 0.025
539 1 0.45 0.65 0
579 1 0.45 0.7 0
1339 1 0.45 0.65 0.05
1379 1 0.45 0.7 0.05
540 1 0.475 0.675 0.025
541 1 0.5 0.65 0
542 1 0.525 0.675 0.025
581 1 0.5 0.7 0
1341 1 0.5 0.65 0.05
1381 1 0.5 0.7 0.05
543 1 0.55 0.65 0
544 1 0.575 0.675 0.025
583 1 0.55 0.7 0
1343 1 0.55 0.65 0.05
1383 1 0.55 0.7 0.05
545 1 0.6 0.65 0
546 1 0.625 0.675 0.025
585 1 0.6 0.7 0
1345 1 0.6 0.65 0.05
1385 1 0.6 0.7 0.05
547 1 0.65 0.65 0
548 1 0.675 0.675 0.025
549 1 0.7 0.65 0
587 1 0.65 0.7 0
589 1 0.7 0.7 0
1347 1 0.65 0.65 0.05
1349 1 0.7 0.65 0.05
1387 1 0.65 0.7 0.05
1389 1 0.7 0.7 0.05
550 1 0.725 0.675 0.025
551 1 0.75 0.65 0
591 1 0.75 0.7 0
1351 1 0.75 0.65 0.05
1391 1 0.75 0.7 0.05
552 1 0.775 0.675 0.025
553 1 0.8 0.65 0
593 1 0.8 0.7 0
1353 1 0.8 0.65 0.05
1393 1 0.8 0.7 0.05
554 1 0.825 0.675 0.025
555 1 0.85 0.65 0
556 1 0.875 0.675 0.025
595 1 0.85 0.7 0
1355 1 0.85 0.65 0.05
1395 1 0.85 0.7 0.05
557 1 0.9 0.65 0
558 1 0.925 0.675 0.025
597 1 0.9 0.7 0
1357 1 0.9 0.65 0.05
1397 1 0.9 0.7 0.05
559 1 0.95 0.65 0
560 1 0.975 0.675 0.025
599 1 0.95 0.7 0
1359 1 0.95 0.65 0.05
1399 1 0.95 0.7 0.05
562 1 0.025 0.725 0.025
601 1 0 0.75 0
603 1 0.05 0.75 0
1401 1 0 0.75 0.05
1403 1 0.05 0.75 0.05
564 1 0.075 0.725 0.025
605 1 0.1 0.75 0
1405 1 0.1 0.75 0.05
566 1 0.125 0.725 0.025
568 1 0.175 0.725 0.025
607 1 0.15 0.75 0
1407 1 0.15 0.75 0.05
570 1 0.225 0.725 0.025
609 1 0.2 0.75 0
1409 1 0.2 0.75 0.05
572 1 0.275 0.725 0.025
611 1 0.25 0.75 0
1411 1 0.25 0.75 0.05
574 1 0.325 0.725 0.025
613 1 0.3 0.75 0
615 1 0.35 0.75 0
1413 1 0.3 0.75 0.05
1415 1 0.35 0.75 0.05
576 1 0.375 0.725 0.025
617 1 0.4 0.75 0
1417 1 0.4 0.75 0.05
578 1 0.425 0.725 0.025
619 1 0.45 0.75 0
1419 1 0.45 0.75 0.05
580 1 0.475 0.725 0.025
582 1 0.525 0.725 0.025
621 1 0.5 0.75 0
1421 1 0.5 0.75 0.05
584 1 0.575 0.725 0.025
623 1 0.55 0.75 0
1423 1 0.55 0.75 0.05
586 1 0.625 0.725 0.025
625 1 0.6 0.75 0
1425 1 0.6 0.75 0.05
588 1 0.675 0.725 0.025
627 1 0.65 0.75 0
629 1 0.7 0.75 0
1427 1 0.65 0.75 0.05
1429 1 0.7 0.75 0.05
590 1 0.725 0.725 0.025
631 1 0.75 0.75 0
1431 1 0.75 0.75 0.05
592 1 0.775 0.725 0.025
633 1 0.8 0.75 0
1433 1 0.8 0.75 0.05
594 1 0.825 0.725 0.025
596 1 0.875 0.725 0.025
635 1 0.85 0.75 0
1435 1 0.85 0.75 0.05
598 1 0.925 0.725 0.025
637 1 0.9 0.75 0
1437 1 0.9 0.75 0.05
600 1 0.975 0.725 0.025
639 1 0.95 0.75 0
1439 1 0.95 0.75 0.05
602 1 0.025 0.775 0.025
641 1 0 0.8 0
643 1 0.05 0.8 0
1441 1 0 0.8 0.05
1443 1 0.05 0.8 0.05
604 1 0.075 0.775 0.025
645 1 0.1 0.8 0
1445 1 0.1 0.8 0.05
606 1 0.125 0.775 0.025
608 1 0.175 0.775 0.025
647 1 0.15 0.8 0
1447 1 0.15 0.8 0.05
610 1 0.225 0.775 0.025
649 1 0.2 0.8 0
1449 1 0.2 0.8 0.05
612 1 0.275 0.775 0.025
651 1 0.25 0.8 0
1451 1 0.25 0.8 0.05
614 1 0.325 0.775 0.025
653 1 0.3 0.8 0
655 1 0.35 0.8 0
1453 1 0.3 0.8 0.05
1455 1 0.35 0.8 0.05
616 1 0.375 0.775 0.025
657 1 0.4 0.8 0
1457 1 0.4 0.8 0.05
618 1 0.425 0.775 0.025
659 1 0.45 0.8 0
1459 1 0.45 0.8 0.05
620 1 0.475 0.775 0.025
622 1 0.525 0.775 0.025
661 1 0.5 0.8 0
1461 1 0.5 0.8 0.05
624 1 0.575 0.775 0.025
663 1 0.55 0.8 0
1463 1 0.55 0.8 0.05
626 1 0.625 0.775 0.025
665 1 0.6 0.8 0
1465 1 0.6 0.8 0.05
628 1 0.675 0.775 0.025
667 1 0.65 0.8 0
669 1 0.7 0.8 0
1467 1 0.65 0.8 0.05
1469 1 0.7 0.8 0.05
630 1 0.725 0.775 0.025
671 1 0.75 0.8 0
1471 1 0.75 0.8 0.05
632 1 0.775 0.775 0.025
673 1 0.8 0.8 0
1473 1 0.8 0.8 0.05
634 1 0.825 0.775 0.025
636 1 0.875 0.775 0.025
675 1 0.85 0.8 0
1475 1 0.85 0.8 0.05
638 1 0.925 0.775 0.025
677 1 0.9 0.8 0
1477 1 0.9 0.8 0.05
640 1 0.975 0.775 0.025
679 1 0.95 0.8 0
1479 1 0.95 0.8 0.05
642 1 0.025 0.825 0.025
681 1 0 0.85 0
682 1 0.025 0.875 0.025
683 1 0.05 0.85 0
1481 1 0 0.85 0.05
1483 1 0.05 0.85 0.05
644 1 0.075 0.825 0.025
684 1 0.075 0.875 0.025
685 1 0.1 0.85 0
1485 1 0.1 0.85 0.05
646 1 0.125 0.825 0.025
648 1 0.175 0.825 0.025
686 1 0.125 0.875 0.025
687 1 0.15 0.85 0
688 1 0.175 0.875 0.025
1487 1 0.15 0.85 0.05
650 1 0.225 0.825 0.025
689 1 0.2 0.85 0
690 1 0.225 0.875 0.025
1489 1 0.2 0.85 0.05
652 1 0.275 0.825 0.025
691 1 0.25 0.85 0
692 1 0.275 0.875 0.025
1491 1 0.25 0.85 0.05
654 1 0.325 0.825 0.025
693 1 0.3 0.85 0
694 1 0.325 0.875 0.025
695 1 0.35 0.85 0
1493 1 0.3 0.85 0.05
1495 1 0.35 0.85 0.05
656 1 0.375 0.825 0.025
696 1 0.375 0.875 0.025
697 1 0.4 0.85 0
1497 1 0.4 0.85 0.05
658 1 0.425 0.825 0.025
698 1 0.425 0.875 0.025
699 1 0.45 0.85 0
1499 1 0.45 0.85 0.05
660 1 0.475 0.825 0.025
662 1 0.525 0.825 0.025
700 1 0.475 0.875 0.025
701 1 0.5 0.85 0
702 1 0.525 0.875 0.025
1501 1 0.5 0.85 0.05
664 1 0.575 0.825 0.025
703 1 0.55 0.85 0
704 1 0.575 0.875 0.025
1503 1 0.55 0.85 0.05
666 1 0.625 0.825 0.025
705 1 0.6 0.85 0
706 1 0.625 0.875 0.025
1505 1 0.6 0.85 0.05
668 1 0.675 0.825 0.025
707 1 0.65 0.85 0
708 1 0.675 0.875 0.025
709 1 0.7 0.85 0
1507 1 0.65 0.85 0.05
1509 1 0.7 0.85 0.05
670 1 0.725 0.825 0.025
710 1 0.725 0.875 0.025
711 1 0.75 0.85 0
1511 1 0.75 0.85 0.05
672 1 0.775 0.825 0.025
712 1 0.775 0.875 0.025
713 1 0.8 0.85 0
1513 1 0.8 0.85 0.05
674 1 0.825 0.825 0.025
676 1 0.875 0.825 0.025
714 1 0.825 0.875 0.025
715 1 0.85 0.85 0
716 1 0.875 0.875 0.025
1515 1 0.85 0.85 0.05
678 1 0.925 0.825 0.025
717 1 0.9 0.85 0
718 1 0.925 0.875 0.025
1517 1 0.9 0.85 0.05
680 1 0.975 0.825 0.025
719 1 0.95 0.85 0
720 1 0.975 0.875 0.025
1519 1 0.95 0.85 0.05
721 1 0 0.9 0
722 1 0.025 0.925 0.025
723 1 0.05 0.9 0
1521 1 0 0.9 0.05
1523 1 0.05 0.9 0.05
724 1 0.075 0.925 0.025
725 1 0.1 0.9 0
1525 1 0.1 0.9 0.05
726 1 0.125 0.925 0.025
727 1 0.15 0.9 0
728 1 0.175 0.925 0.025
1527 1 0.15 0.9 0.05
729 1 0.2 0.9 0
730 1 0.225 0.925 0.025
1529 1 0.2 0.9 0.05
731 1 0.25 0.9 0
732 1 0.275 0.925 0.025
1531 1 0.25 0.9 0.05
733 1 0.3 0.9 0
734 1 0.325 0.925 0.025
735 1 0.35 0.9 0
1533 1 0.3 0.9 0.05
1535 1 0.35 0.9 0.05
736 1 0.375 0.925 0.025
737 1 0.4 0.9 0
1537 1 0.4 0.9 0.05
738 1 0.425 0.925 0.025
739 1 0.45 0.9 0
1539 1 0.45 0.9 0.05
740 1 0.475 0.925 0.025
741 1 0.5 0.9 0
742 1 0.525 0.925 0.025
1541 1 0.5 0.9 0.05
743 1 0.55 0.9 0
744 1 0.575 0.925 0.025
1543 1 0.55 0.9 0.05
745 1 0.6 0.9 0
746 1 0.625 0.925 0.025
1545 1 0.6 0.9 0.05
747 1 0.65 0.9 0
748 1 0.675 0.925 0.025
749 1 0.7 0.9 0
1547 1 0.65 0.9 0.05
1549 1 0.7 0.9 0.05
750 1 0.725 0.925 0.025
751 1 0.75 0.9 0
1551 1 0.75 0.9 0.05
752 1 0.775 0.925 0.025
753 1 0.8 0.9 0
1553 1 0.8 0.9 0.05
754 1 0.825 0.925 0.025
755 1 0.85 0.9 0
756 1 0.875 0.925 0.025
1555 1 0.85 0.9 0.05
757 1 0.9 0.9 0
758 1 0.925 0.925 0.025
1557 1 0.9 0.9 0.05
759 1 0.95 0.9 0
760 1 0.975 0.925 0.025
1559 1 0.95 0.9 0.05
761 1 0 0.95 0
762 1 0.025 0.975 0.025
763 1 0.05 0.95 0
1561 1 0 0.95 0.05
1563 1 0.05 0.95 0.05
764 1 0.075 0.975 0.025
765 1 0.1 0.95 0
1565 1 0.1 0.95 0.05
766 1 0.125 0.975 0.025
767 1 0.15 0.95 0
768 1 0.175 0.975 0.025
1567 1 0.15 0.95 0.05
769 1 0.2 0.95 0
770 1 0.225 0.975 0.025
1569 1 0.2 0.95 0.05
771 1 0.25 0.95 0
772 1 0.275 0.975 0.025
1571 1 0.25 0.95 0.05
773 1 0.3 0.95 0
774 1 0.325 0.975 0.025
775 1 0.35 0.95 0
1573 1 0.3 0.95 0.05
1575 1 0.35 0.95 0.05
776 1 0.375 0.975 0.025
777 1 0.4 0.95 0
1577 1 0.4 0.95 0.05
778 1 0.425 0.975 0.025
779 1 0.45 0.95 0
1579 1 0.45 0.95 0.05
780 1 0.475 0.975 0.025
781 1 0.5 0.95 0
782 1 0.525 0.975 0.025
1581 1 0.5 0.95 0.05
783 1 0.55 0.95 0
784 1 0.575 0.975 0.025
1583 1 0.55 0.95 0.05
785 1 0.6 0.95 0
786 1 0.625 0.975 0.025
1585 1 0.6 0.95 0.05
787 1 0.65 0.95 0
788 1 0.675 0.975 0.025
789 1 0.7 0.95 0
1587 1 0.65 0.95 0.05
1589 1 0.7 0.95 0.05
790 1 0.725 0.975 0.025
791 1 0.75 0.95 0
1591 1 0.75 0.95 0.05
792 1 0.775 0.975 0.025
793 1 0.8 0.95 0
1593 1 0.8 0.95 0.05
794 1 0.825 0.975 0.025
795 1 0.85 0.95 0
796 1 0.875 0.975 0.025
1595 1 0.85 0.95 0.05
797 1 0.9 0.95 0
798 1 0.925 0.975 0.025
1597 1 0.9 0.95 0.05
799 1 0.95 0.95 0
800 1 0.975 0.975 0.025
1599 1 0.95 0.95 0.05
802 1 0.025 0.025 0.075
1601 1 0 0 0.1
1603 1 0.05 0 0.1
1641 1 0 0.05 0.1
1643 1 0.05 0.05 0.1
804 1 0.075 0.025 0.075
1605 1 0.1 0 0.1
1645 1 0.1 0.05 0.1
806 1 0.125 0.025 0.075
808 1 0.175 0.025 0.075
1607 1 0.15 0 0.1
1647 1 0.15 0.05 0.1
810 1 0.225 0.025 0.075
1609 1 0.2 0 0.1
1649 1 0.2 0.05 0.1
812 1 0.275 0.025 0.075
1611 1 0.25 0 0.1
1651 1 0.25 0.05 0.1
814 1 0.325 0.025 0.075
1613 1 0.3 0 0.1
1615 1 0.35 0 0.1
1653 1 0.3 0.05 0.1
1655 1 0.35 0.05 0.1
816 1 0.375 0.025 0.075
1617 1 0.4 0 0.1
1657 1 0.4 0.05 0.1
818 1 0.425 0.025 0.075
1619 1 0.45 0 0.1
1659 1 0.45 0.05 0.1
820 1 0.475 0.025 0.075
822 1 0.525 0.025 0.075
1621 1 0.5 0 0.1
1661 1 0.5 0.05 0.1
824 1 0.575 0.025 0.075
1623 1 0.55 0 0.1
1663 1 0.55 0.05 0.1
826 1 0.625 0.025 0.075
1625 1 0.6 0 0.1
1665 1 0.6 0.05 0.1
828 1 0.675 0.025 0.075
1627 1 0.65 0 0.1
1629 1 0.7 0 0.1
1667 1 0.65 0.05 0.1
1669 1 0.7 0.05 0.1
830 1 0.725 0.025 0.075
1631 1 0.75 0 0.1
1671 1 0.75 0.05 0.1
832 1 0.775 0.025 0.075
1633 1 0.8 0 0.1
1673 1 0.8 0.05 0.1
834 1 0.825 0.025 0.075
836 1 0.875 0.025 0.075
1635 1 0.85 0 0.1
1675 1 0.85 0.05 0.1
838 1 0.925 0.025 0.075
1637 1 0.9 0 0.1
1677 1 0.9 0.05 0.1
840 1 0.975 0.025 0.075
1639 1 0.95 0 0.1
1679 1 0.95 0.05 0.1
842 1 0.025 0.075 0.075
1681 1 0 0.1 0.1
1683 1 0.05 0.1 0.1
844 1 0.075 0.075 0.075
1685 1 0.1 0.1 0.1
846 1 0.125 0.075 0.075
848 1 0.175 0.075 0.075
1687 1 0.15 0.1 0.1
850 1 0.225 0.075 0.075
1689 1 0.2 0.1 0.1
852 1 0.275 0.075 0.075
1691 1 0.25 0.1 0.1
854 1 0.325 0.075 0.075
1693 1 0.3 0.1 0.1
1695 1 0.35 0.1 0.1
856 1 0.375 0.075 0.075
1697 1 0.4 0.1 0.1
858 1 0.425 0.075 0.075
1699 1 0.45 0.1 0.1
860 1 0.475 0.075 0.075
862 1 0.525 0.075 0.075
1701 1 0.5 0.1 0.1
864 1 0.575 0.075 0.075
1703 1 0.55 0.1 0.1
866 1 0.625 0.075 0.075
1705 1 0.6 0.1 0.1
868 1 0.675 0.075 0.075
1707 1 0.65 0.1 0.1
1709 1 0.7 0.1 0.1
870 1 0.725 0.075 0.075
1711 1 0.75 0.1 0.1
872 1 0.775 0.075 0.075
1713 1 0.8 0.1 0.1
874 1 0.825 0.075 0.075
876 1 0.875 0.075 0.075
1715 1 0.85 0.1 0.1
878 1 0.925 0.075 0.075
1717 1 0.9 0.1 0.1
880 1 0.975 0.075 0.075
1719 1 0.95 0.1 0.1
882 1 0.025 0.125 0.075
922 1 0.025 0.175 0.075
1721 1 0 0.15 0.1
1723 1 0.05 0.15 0.1
884 1 0.075 0.125 0.075
924 1 0.075 0.175 0.075
1725 1 0.1 0.15 0.1
886 1 0.125 0.125 0.075
888 1 0.175 0.125 0.075
926 1 0.125 0.175 0.075
928 1 0.175 0.175 0.075
1727 1 0.15 0.15 0.1
890 1 0.225 0.125 0.075
930 1 0.225 0.175 0.075
1729 1 0.2 0.15 0.1
892 1 0.275 0.125 0.075
932 1 0.275 0.175 0.075
1731 1 0.25 0.15 0.1
894 1 0.325 0.125 0.075
934 1 0.325 0.175 0.075
1733 1 0.3 0.15 0.1
1735 1 0.35 0.15 0.1
896 1 0.375 0.125 0.075
936 1 0.375 0.175 0.075
1737 1 0.4 0.15 0.1
898 1 0.425 0.125 0.075
938 1 0.425 0.175 0.075
1739 1 0.45 0.15 0.1
900 1 0.475 0.125 0.075
902 1 0.525 0.125 0.075
940 1 0.475 0.175 0.075
942 1 0.525 0.175 0.075
1741 1 0.5 0.15 0.1
904 1 0.575 0.125 0.075
944 1 0.575 0.175 0.075
1743 1 0.55 0.15 0.1
906 1 0.625 0.125 0.075
946 1 0.625 0.175 0.075
1745 1 0.6 0.15 0.1
908 1 0.675 0.125 0.075
948 1 0.675 0.175 0.075
1747 1 0.65 0.15 0.1
1749 1 0.7 0.15 0.1
910 1 0.725 0.125 0.075
950 1 0.725 0.175 0.075
1751 1 0.75 0.15 0.1
912 1 0.775 0.125 0.075
952 1 0.775 0.175 0.075
1753 1 0.8 0.15 0.1
914 1 0.825 0.125 0.075
916 1 0.875 0.125 0.075
954 1 0.825 0.175 0.075
956 1 0.875 0.175 0.075
1755 1 0.85 0.15 0.1
918 1 0.925 0.125 0.075
958 1 0.925 0.175 0.075
1757 1 0.9 0.15 0.1
920 1 0.975 0.125 0.075
960 1 0.975 0.175 0.075
1759 1 0.95 0.15 0.1
962 1 0.025 0.225 0.075
1761 1 0 0.2 0.1
1763 1 0.05 0.2 0.1
964 1 0.075 0.225 0.075
1765 1 0.1 0.2 0.1
966 1 0.125 0.225 0.075
968 1 0.175 0.225 0.075
1767 1 0.15 0.2 0.1
970 1 0.225 0.225 0.075
1769 1 0.2 0.2 0.1
972 1 0.275 0.225 0.075
1771 1 0.25 0.2 0.1
974 1 0.325 0.225 0.075
1773 1 0.3 0.2 0.1
1775 1 0.35 0.2 0.1
976 1 0.375 0.225 0.075
1777 1 0.4 0.2 0.1
978 1 0.425 0.225 0.075
1779 1 0.45 0.2 0.1
980 1 0.475 0.225 0.075
982 1 0.525 0.225 0.075
1781 1 0.5 0.2 0.1
984 1 0.575 0.225 0.075
1783 1 0.55 0.2 0.1
986 1 0.625 0.225 0.075
1785 1 0.6 0.2 0.1
988 1 0.675 0.225 0.075
1787 1 0.65 0.2 0.1
1789 1 0.7 0.2 0.1
990 1 0.725 0.225 0.075
1791 1 0.75 0.2 0.1
992 1 0.775 0.225 0.075
1793 1 0.8 0.2 0.1
994 1 0.825 0.225 0.075
996 1 0.875 0.225 0.075
1795 1 0.85 0.2 0.1
998 1 0.925 0.225 0.075
1797 1 0.9 0.2 0.1
1000 1 0.975 0.225 0.075
1799 1 0.95 0.2 0.1
1002 1 0.025 0.275 0.075
1801 1 0 0.25 0.1
1803 1 0.05 0.25 0.1
1004 1 0.075 0.275 0.075
1805 1 0.1 0.25 0.1
1006 1 0.125 0.275 0.075
1008 1 0.175 0.275 0.075
1807 1 0.15 0.25 0.1
1010 1 0.225 0.275 0.075
1809 1 0.2 0.25 0.1
1012 1 0.275 0.275 0.075
1811 1 0.25 0.25 0.1
1014 1 0.325 0.275 0.075
1813 1 0.3 0.25 0.1
1815 1 0.35 0.25 0.1
1016 1 0.375 0.275 0.075
1817 1 0.4 0.25 0.1
1018 1 0.425 0.275 0.075
1819 1 0.45 0.25 0.1
1020 1 0.475 0.275 0.075
1022 1 0.525 0.275 0.075
1821 1 0.5 0.25 0.1
1024 1 0.575 0.275 0.075
1823 1 0.55 0.25 0.1
1026 1 0.625 0.275 0.075
1825 1 0.6 0.25 0.1
1028 1 0.675 0.275 0.075
1827 1 0.65 0.25 0.1
1829 1 0.7 0.25 0.1
1030 1 0.725 0.275 0.075
1831 1 0.75 0.25 0.1
1032 1 0.775 0.275 0.075
1833 1 0.8 0.25 0.1
1034 1 0.825 0.275 0.075
1036 1 0.875 0.275 0.075
1835 1 0.85 0.25 0.1
1038 1 0.925 0.275 0.075
1837 1 0.9 0.25 0.1
1040 1 0.975 0.275 0.075
1839 1 0.95 0.25 0.1
1042 1 0.025 0.325 0.075
1841 1 0 0.3 0.1
1843 1 0.05 0.3 0.1
1881 1 0 0.35 0.1