ITEM: TIMESTEP
0
ITEM: NUMBER OF ATOMS
2000
ITEM: BOX BOUNDS pp pp pp
0.0000000000000000e+00 3.5539999999999999e+01
0.0000000000000000e+00 3.5539999999999999e+01
0.0000000000000000e+00 3.5539999999999999e+01
ITEM: ATOMS id type xs ys zs
1 1 0 0 0
2 1 0.05 0.05 0.05
3 1 0.1 0 0
4 1 0.15 0.05 0.05
5 1 0.2 0 0
6 1 0.25 0.05 0.05
7 1 0.3 0 0
8 1 0.35 0.05 0.05
9 1 0.4 0 0
10 1 0.45 0.05 0.05
11 1 0.5 0 0
12 1 0.55 0.05 0.05
13 1 0.6 0 0
14 1 0.65 0.05 0.05
15 1 0.7 0 0
16 1 0.75 0.05 0.05
17 1 0.8 0 0
18 1 0.85 0.05 0.05
19 1 0.9 0 0
20 1 0.95 0.05 0.05
21 1 0 0.1 0
22 1 0.05 0.15 0.05
23 1 0.1 0.1 0
24 1 0.15 0.15 0.05
25 1 0.2 0.1 0
26 1 0.25 0.15 0.05
27 1 0.3 0.1 0
28 1 0.35 0.15 0.05
29 1 0.4 0.1 0
30 1 0.45 0.15 0.05
31 1 0.5 0.1 0
32 1 0.55 0.15 0.05
33 1 0.6 0.1 0
34 1 0.65 0.15 0.05
35 1 0.7 0.1 0
36 1 0.75 0.15 0.05
37 1 0.8 0.1 0
38 1 0.85 0.15 0.05
39 1 0.9 0.1 0
40 1 0.95 0.15 0.05
41 1 0 0.2 0
42 1 0.05 0.25 0.05
43 1 0.1 0.2 0
44 1 0.15 0.25 0.05
45 1 0.2 0.2 0
46 1 0.25 0.25 0.05
47 1 0.3 0.2 0
48 1 0.35 0.25 0.05
49 1 0.4 0.2 0
50 1 0.45 0.25 0.05
51 1 0.5 0.2 0
52 1 0.55 0.25 0.05
53 1 0.6 0.2 0
54 1 0.65 0.25 0.05
55 1 0.7 0.2 0
56 1 0.75 0.25 0.05
57 1 0.8 0.2 0
58 1 0.85 0.25 0.05
59 1 0.9 0.2 0
60 1 0.95 0.25 0.05
61 1 0 0.3 0
62 1 0.05 0.35 0.05
63 1 0.1 0.3 0
64 1 0.15 0.35 0.05
65 1 0.2 0.3 0
66 1 0.25 0.35 0.05
67 1 0.3 0.3 0
68 1 0.35 0.35 0.05
69 1 0.4 0.3 0
70 1 0.45 0.35 0.05
71 1 0.5 0.3 0
72 1 0.55 0.35 0.05
73 1 0.6 0.3 0
74 1 0.65 0.35 0.05
75 1 0.7 0.3 0
76 1 0.75 0.35 0.05
77 1 0.8 0.3 0
78 1 0.85 0.35 0.05
79 1 0.9 0.3 0
80 1 0.95 0.35 0.05
81 1 0 0.4 0
82 1 0.05 0.45 0.05
83 1 0.1 0.4 0
84 1 0.15 0.45 0.05
85 1 0.2 0.4 0
86 1 0.25 0.45 0.05
87 1 0.3 0.4 0
88 1 0.35 0.45 0.05
89 1 0.4 0.4 0
90 1 0.45 0.45 0.05
91 1 0.5 0.4 0
92 1 0.55 0.45 0.05
93 1 0.6 0.4 0
94 1 0.65 0.45 0.05
95 1 0.7 0.4 0
96 1 0.75 0.45 0.05
97 1 0.8 0.4 0
98 1 0.85 0.45 0.05
99 1 0.9 0.4 0
100 1 0.95 0.45 0.05
101 1 0 0.5 0
102 1 0.05 0.55 0.05
103 1 0.1 0.5 0
104 1 0.15 0.55 0.05
105 1 0.2 0.5 0
106 1 0.25 0.55 0.05
107 1 0.3 0.5 0
108 1 0.35 0.55 0.05
109 1 0.4 0.5 0
110 1 0.45 0.55 0.05
111 1 0.5 0.5 0
112 1 0.55 0.55 0.05
113 1 0.6 0.5 0
114 1 0.65 0.55 0.05
115 1 0.7 0.5 0
116 1 0.75 0.55 0.05
117 1 0.8 0.5 0
118 1 0.85 0.55 0.05
119 1 0.9 0.5 0
120 1 0.95 0.55 0.05
121 1 0 0.6 0
122 1 0.05 0.65 0.05
123 1 0.1 0.6 0
124 1 0.15 0.65 0.05
125 1 0.2 0.6 0
126 1 0.25 0.65 0.05
127 1 0.3 0.6 0
128 1 0.35 0.65 0.05
129 1 0.4 0.6 0
130 1 0.45 0.65 0.05
131 1 0.5 0.6 0
132 1 0.55 0.65 0.05
133 1 0.6 0.6 0
134 1 0.65 0.65 0.05
135 1 0.7 0.6 0
136 1 0.75 0.65 0.05
137 1 0.8 0.6 0
138 1 0.85 0.65 0.05
139 1 0.9 0.6 0
140 1 0.95 0.65 0.05
141 1 0 0.7 0
142 1 0.05 0.75 0.05
143 1 0.1 0.7 0
144 1 0.15 0.75 0.05
145 1 0.2 0.7 0
146 1 0.25 0.75 0.05
147 1 0.3 0.7 0
148 1 0.35 0.75 0.05
149 1 0.4 0.7 0
150 1 0.45 0.75 0.05
151 1 0.5 0.7 0
152 1 0.55 0.75 0.05
153 1 0.6 0.7 0
154 1 0.65 0.75 0.05
155 1 0.7 0.7 0
156 1 0.75 0.75 0.05
157 1 0.8 0.7 0
158 1 0.85 0.75 0.05
159 1 0.9 0.7 0
160 1 0.95 0.75 0.05
161 1 0 0.8 0
162 1 0.05 0.85 0.05
163 1 0.1 0.8 0
164 1 0.15 0.85 0.05
165 1 0.2 0.8 0
166 1 0.25 0.85 0.05
167 1 0.3 0.8 0
168 1 0.35 0.85 0.05
169 1 0.4 0.8 0
170 1 0.45 0.85 0.05
171 1 0.5 0.8 0
172 1 0.55 0.85 0.05
173 1 0.6 0.8 0
174 1 0.65 0.85 0.05
175 1 0.7 0.8 0
176 1 0.75 0.85 0.05
177 1 0.8 0.8 0
178 1 0.85 0.85 0.05
179 1 0.9 0.8 0
180 1 0.95 0.85 0.05
181 1 0 0.9 0
182 1 0.05 0.95 0.05
183 1 0.1 0.9 0
184 1 0.15 0.95 0.05
185 1 0.2 0.9 0
186 1 0.25 0.95 0.05
187 1 0.3 0.9 0
188 1 0.35 0.95 0.05
189 1 0.4 0.9 0
190 1 0.45 0.95 0.05
191 1 0.5 0.9 0
192 1 0.55 0.95 0.05
193 1 0.6 0.9 0
194 1 0.65 0.95 0.05
195 1 0.7 0.9 0
196 1 0.75 0.95 0.05
197 1 0.8 0.9 0
198 1 0.85 0.95 0.05
199 1 0.9 0.9 0
200 1 0.95 0.95 0.05
201 1 0 0 0.1
202 1 0.05 0.05 0.15
203 1 0.1 0 0.1
204 1 0.15 0.05 0.15
205 1 0.2 0 0.1
206 1 0.25 0.05 0.15
207 1 0.3 0 0.1
208 1 0.35 0.05 0.15
209 1 0.4 0 0.1
210 1 0.45 0.05 0.15
211 1 0.5 0 0.1
212 1 0.55 0.05 0.15
213 1 0.6 0 0.1
214 1 0.65 0.05 0.15
215 1 0.7 0 0.1
216 1 0.75 0.05 0.15
217 1 0.8 0 0.1
218 1 0.85 0.05 0.15
219 1 0.9 0 0.1
220 1 0.95 0.05 0.15
221 1 0 0.1 0.1
222 1 0.05 0.15 0.15
223 1 0.1 0.1 0.1
224 1 0.15 0.15 0.15
225 1 0.2 0.1 0.1
226 1 0.25 0.15 0.15
227 1 0.3 0.1 0.1
228 1 0.35 0.15 0.15
229 1 0.4 0.1 0.1
230 1 0.45 0.15 0.15
231 1 0.5 0.1 0.1
232 1 0.55 0.15 0.15
233 1 0.6 0.1 0.1
234 1 0.65 0.15 0.15
235 1 0.7 0.1 0.1
236 1 0.75 0.15 0.15
237 1 0.8 0.1 0.1
238 1 0.85 0.15 0.15
239 1 0.9 0.1 0.1
240 1 0.95 0.15 0.15
241 1 0 0.2 0.1
242 1 0.05 0.25 0.15
243 1 0.1 0.2 0.1
244 1 0.15 0.25 0.15
245 1 0.2 0.2 0.1
246 1 0.25 0.25 0.15
247 1 0.3 0.2 0.1
248 1 0.35 0.25 0.15
249 1 0.4 0.2 0.1
250 1 0.45 0.25 0.15
251 1 0.5 0.2 0.1
252 1 0.55 0.25 0.15
253 1 0.6 0.2 0.1
254 1 0.65 0.25 0.15
255 1 0.7 0.2 0.1
256 1 0.75 0.25 0.15
257 1 0.8 0.2 0.1
258 1 0.85 0.25 0.15
259 1 0.9 0.2 0.1
260 1 0.95 0.25 0.15
261 1 0 0.3 0.1
262 1 0.05 0.35 0.15
263 1 0.1 0.3 0.1
264 1 0.15 0.35 0.15
265 1 0.2 0.3 0.1
266 1 0.25 0.35 0.15
267 1 0.3 0.3 0.1
268 1 0.35 0.35 0.15
269 1 0.4 0.3 0.1
270 1 0.45 0.35 0.15
271 1 0.5 0.3 0.1
272 1 0.55 0.35 0.15
273 1 0.6 0.3 0.1
274 1 0.65 0.35 0.15
275 1 0.7 0.3 0.1
276 1 0.75 0.35 0.15
277 1 0.8 0.3 0.1
278 1 0.85 0.35 0.15
279 1 0.9 0.3 0.1
280 1 0.95 0.35 0.15
281 1 0 0.4 0.1
282 1 0.05 0.45 0.15
283 1 0.1 0.4 0.1
284 1 0.15 0.45 0.15
285 1 0.2 0.4 0.1
286 1 0.25 0.45 0.15
287 1 0.3 0.4 0.1
288 1 0.35 0.45 0.15
289 1 0.4 0.4 0.1
290 1 0.45 0.45 0.15
291 1 0.5 0.4 0.1
292 1 0.55 0.45 0.15
293 1 0.6 0.4 0.1
294 1 0.65 0.45 0.15
295 1 0.7 0.4 0.1
296 1 0.75 0.45 0.15
297 1 0.8 0.4 0.1
298 1 0.85 0.45 0.15
299 1 0.9 0.4 0.1
300 1 0.95 0.45 0.15
301 1 0 0.5 0.1
302 1 0.05 0.55 0.15
303 1 0.1 0.5 0.1
304 1 0.15 0.55 0.15
305 1 0.2 0.5 0.1
306 1 0.25 0.55 0.15
307 1 0.3 0.5 0.1
308 1 0.35 0.55 0.15
309 1 0.4 0.5 0.1
310 1 0.45 0.55 0.15
311 1 0.5 0.5 0.1
312 1 0.55 0.55 0.15
313 1 0.6 0.5 0.1
314 1 0.65 0.55 0.15
315 1 0.7 0.5 0.1
316 1 0.75 0.55 0.15
317 1 0.8 0.5 0.1
318 1 0.85 0.55 0.15
319 1 0.9 0.5 0.1
320 1 0.95 0.55 0.15
321 1 0 0.6 0.1
322 1 0.05 0.65 0.15
323 1 0.1 0.6 0.1
324 1 0.15 0.65 0.15
325 1 0.2 0.6 0.1
326 1 0.25 0.65 0.15
327 1 0.3 0.6 0.1
328 1 0.35 0.65 0.15
329 1 0.4 0.6 0.1
330 1 0.45 0.65 0.15
331 1 0.5 0.6 0.1
332 1 0.55 0.65 0.15
333 1 0.6 0.6 0.1
334 1 0.65 0.65 0.15
335 1 0.7 0.6 0.1
336 1 0.75 0.65 0.15
337 1 0.8 0.6 0.1
338 1 0.85 0.65 0.15
339 1 0.9 0.6 0.1
340 1 0.95 0.65 0.15
341 1 0 0.7 0.1
342 1 0.05 0.75 0.15
343 1 0.1 0.7 0.1
344 1 0.15 0.75 0.15
345 1 0.2 0.7 0.1
346 1 0.25 0.75 0.15
347 1 0.3 0.7 0.1
348 1 0.35 0.75 0.15
349 1 0.4 0.7 0.1
350 1 0.45 0.75 0.15
351 1 0.5 0.7 0.1
352 1 0.55 0.75 0.15
353 1 0.6 0.7 0.1
354 1 0.65 0.75 0.15
355 1 0.7 0.7 0.1
356 1 0.75 0.75 0.15
357 1 0.8 0.7 0.1
358 1 0.85 0.75 0.15
359 1 0.9 0.7 0.1
360 1 0.95 0.75 0.15
361 1 0 0.8 0.1
362 1 0.05 0.85 0.15
363 1 0.1 0.8 0.1
364 1 0.15 0.85 0.15
365 1 0.2 0.8 0.1
366 1 0.25 0.85 0.15
367 1 0.3 0.8 0.1
368 1 0.35 0.85 0.15
369 1 0.4 0.8 0.1
370 1 0.45 0.85 0.15
371 1 0.5 0.8 0.1
372 1 0.55 0.85 0.15
373 1 0.6 0.8 0.1
374 1 0.65 0.85 0.15
375 1 0.7 0.8 0.1
376 1 0.75 0.85 0.15
377 1 0.8 0.8 0.1
378 1 0.85 0.85 0.15
379 1 0.9 0.8 0.1
380 1 0.95 0.85 0.15
381 1 0 0.9 0.1
382 1 0.05 0.95 0.15
383 1 0.1 0.9 0.1
384 1 0.15 0.95 0.15
385 1 0.2 0.9 0.1
386 1 0.25 0.95 0.15
387 1 0.3 0.9 0.1
388 1 0.35 0.95 0.15
389 1 0.4 0.9 0.1
390 1 0.45 0.95 0.15
391 1 0.5 0.9 0.1
392 1 0.55 0.95 0.15
393 1 0.6 0.9 0.1
394 1 0.65 0.95 0.15
395 1 0.7 0.9 0.1
396 1 0.75 0.95 0.15
397 1 0.8 0.9 0.1
398 1 0.85 0.95 0.15
399 1 0.9 0.9 0.1
400 1 0.95 0.95 0.15
401 1 0 0 0.2
402 1 0.05 0.05 0.25
403 1 0.1 0 0.2
404 1 0.15 0.05 0.25
405 1 0.2 0 0.2
406 1 0.25 0.05 0.25
407 1 0.3 0 0.2
408 1 0.35 0.05 0.25
409 1 0.4 0 0.2
410 1 0.45 0.05 0.25
411 1 0.5 0 0.2
412 1 0.55 0.05 0.25
413 1 0.6 0 0.2
414 1 0.65 0.05 0.25
415 1 0.7 0 0.2
416 1 0.75 0.05 0.25
417 1 0.8 0 0.2
418 1 0.85 0.05 0.25
419 1 0.9 0 0.2
420 1 0.95 0.05 0.25
421 1 0 0.1 0.2
422 1 0.05 0.15 0.25
423 1 0.1 0.1 0.2
424 1 0.15 0.15 0.25
425 1 0.2 0.1 0.2
426 1 0.25 0.15 0.25
427 1 0.3 0.1 0.2
428 1 0.35 0.15 0.25
429 1 0.4 0.1 0.2
430 1 0.45 0.15 0.25
431 1 0.5 0.1 0.2
432 1 0.55 0.15 0.25
433 1 0.6 0.1 0.2
434 1 0.65 0.15 0.25
435 1 0.7 0.1 0.2
436 1 0.75 0.15 0.25
437 1 0.8 0.1 0.2
438 1 0.85 0.15 0.25
439 1 0.9 0.1 0.2
440 1 0.95 0.15 0.25
441 1 0 0.2 0.2
442 1 0.05 0.25 0.25
443 1 0.1 0.2 0.2
444 1 0.15 0.25 0.25
445 1 0.2 0.2 0.2
446 1 0.25 0.25 0.25
447 1 0.3 0.2 0.2
448 1 0.35 0.25 0.25
449 1 0.4 0.2 0.2
450 1 0.45 0.25 0.25
451 1 0.5 0.2 0.2
452 1 0.55 0.25 0.25
453 1 0.6 0.2 0.2
454 1 0.65 0.25 0.25
455 1 0.7 0.2 0.2
456 1 0.75 0.25 0.25
457 1 0.8 0.2 0.2
458 1 0.85 0.25 0.25
459 1 0.9 0.2 0.2
460 1 0.95 0.25 0.25
461 1 0 0.3 0.2
462 1 0.05 0.35 0.25
463 1 0.1 0.3 0.2
464 1 0.15 0.35 0.25
465 1 0.2 0.3 0.2
466 1 0.25 0.35 0.25
467 1 0.3 0.3 0.2
468 1 0.35 0.35 0.25
469 1 0.4 0.3 0.2
470 1 0.45 0.35 0.25
471 1 0.5 0.3 0.2
472 1 0.55 0.35 0.25
473 1 0.6 0.3 0.2
474 1 0.65 0.35 0.25
475 1 0.7 0.3 0.2
476 1 0.75 0.35 0.25
477 1 0.8 0.3 0.2
478 1 0.85 0.35 0.25
479 1 0.9 0.3 0.2
480 1 0.95 0.35 0.25
481 1 0 0.4 0.2
482 1 0.05 0.45 0.25
483 1 0.1 0.4 0.2
484 1 0.15 0.45 0.25
485 1 0.2 0.4 0.2
486 1 0.25 0.45 0.25
487 1 0.3 0.4 0.2
488 1 0.35 0.45 0.25
489 1 0.4 0.4 0.2
490 1 0.45 0.45 0.25
491 1 0.5 0.4 0.2
492 1 0.55 0.45 0.25
493 1 0.6 0.4 0.2
494 1 0.65 0.45 0.25
495 1 0.7 0.4 0.2
496 1 0.75 0.45 0.25
497 1 0.8 0.4 0.2
498 1 0.85 0.45 0.25
499 1 0.9 0.4 0.2
500 1 0.95 0.45 0.25
501 1 0 0.5 0.2
502 1 0.05 0.55 0.25
503 1 0.1 0.5 0.2
504 1 0.15 0.55 0.25
505 1 0.2 0.5 0.2
506 1 0.25 0.55 0.25
507 1 0.3 0.5 0.2
508 1 0.35 0.55 0.25
509 1 0.4 0.5 0.2
510 1 0.45 0.55 0.25
511 1 0.5 0.5 0.2
512 1 0.55 0.55 0.25
513 1 0.6 0.5 0.2
514 1 0.65 0.55 0.25
515 1 0.7 0.5 0.2
516 1 0.75 0.55 0.25
517 1 0.8 0.5 0.2
518 1 0.85 0.55 0.25
519 1 0.9 0.5 0.2
520 1 0.95 0.55 0.25
521 1 0 0.6 0.2
522 1 0.05 0.65 0.25
523 1 0.1 0.6 0.2
524 1 0.15 0.65 0.25
525 1 0.2 0.6 0.2
526 1 0.25 0.65 0.25
527 1 0.3 0.6 0.2
528 1 0.35 0.65 0.25
529 1 0.4 0.6 0.2
530 1 0.45 0.65 0.25
531 1 0.5 0.6 0.2
532 1 0.55 0.65 0.25
533 1 0.6 0.6 0.2
534 1 0.65 0.65 0.25
535 1 0.7 0.6 0.2
536 1 0.75 0.65 0.25
537 1 0.8 0.6 0.2
538 1 0.85 0.65 0.25
539 1 0.9 0.6 0.2
540 1 0.95 0.65 0.25
541 1 0 0.7 0.2
542 1 0.05 0.75 0.25
543 1 0.1 0.7 0.2
544 1 0.15 0.75 0.25
545 1 0.2 0.7 0.2
546 1 0.25 0.75 0.25
547 1 0.3 0.7 0.2
548 1 0.35 0.75 0.25
549 1 0.4 0.7 0.2
550 1 0.45 0.75 0.25
551 1 0.5 0.7 0.2
552 1 0.55 0.75 0.25
553 1 0.6 0.7 0.2
554 1 0.65 0.75 0.25
555 1 0.7 0.7 0.2
556 1 0.75 0.75 0.25
557 1 0.8 0.7 0.2
558 1 0.85 0.75 0.25
559 1 0.9 0.7 0.2
560 1 0.95 0.75 0.25
561 1 0 0.8 0.2
562 1 0.05 0.85 0.25
563 1 0.1 0.8 0.2
564 1 0.15 0.85 0.25
565 1 0.2 0.8 0.2
566 1 0.25 0.85 0.25
567 1 0.3 0.8 0.2
568 1 0.35 0.85 0.25
569 1 0.4 0.8 0.2
570 1 0.45 0.85 0.25
571 1 0.5 0.8 0.2
572 1 0.55 0.85 0.25
573 1 0.6 0.8 0.2
574 1 0.65 0.85 0.25
575 1 0.7 0.8 0.2
576 1 0.75 0.85 0.25
577 1 0.8 0.8 0.2
578 1 0.85 0.85 0.25
579 1 0.9 0.8 0.2
580 1 0.95 0.85 0.25
581 1 0 0.9 0.2
582 1 0.05 0.95 0.25
583 1 0.1 0.9 0.2
584 1 0.15 0.95 0.25
585 1 0.2 0.9 0.2
586 1 0.25 0.95 0.25
587 1 0.3 0.9 0.2
588 1 0.35 0.95 0.25
589 1 0.4 0.9 0.2
590 1 0.45 0.95 0.25
591 1 0.5 0.9 0.2
592 1 0.55 0.95 0.25
593 1 0.6 0.9 0.2
594 1 0.65 0.95 0.25
595 1 0.7 0.9 0.2
596 1 0.75 0.95 0.25
597 1 0.8 0.9 0.2
598 1 0.85 0.95 0.25
599 1 0.9 0.9 0.2
600 1 0.95 0.95 0.25
601 1 0 0 0.3
602 1 0.05 0.05 0.35
603 1 0.1 0 0.3
604 1 0.15 0.05 0.35
605 1 0.2 0 0.3
606 1 0.25 0.05 0.35
607 1 0.3 0 0.3
608 1 0.35 0.05 0.35
609 1 0.4 0 0.3
610 1 0.45 0.05 0.35
611 1 0.5 0 0.3
612 1 0.55 0.05 0.35
613 1 0.6 0 0.3
614 1 0.65 0.05 0.35
615 1 0.7 0 0.3
616 1 0.75 0.05 0.35
617 1 0.8 0 0.3
618 1 0.85 0.05 0.35
619 1 0.9 0 0.3
620 1 0.95 0.05 0.35
621 1 0 0.1 0.3
622 1 0.05 0.15 0.35
623 1 0.1 0.1 0.3
624 1 0.15 0.15 0.35
625 1 0.2 0.1 0.3
626 1 0.25 0.15 0.35
627 1 0.3 0.1 0.3
628 1 0.35 0.15 0.35
629 1 0.4 0.1 0.3
630 1 0.45 0.15 0.35
631 1 0.5 0.1 0.3
632 1 0.55 0.15 0.35
633 1 0.6 0.1 0.3
634 1 0.65 0.15 0.35
635 1 0.7 0.1 0.3
636 1 0.75 0.15 0.35
637 1 0.8 0.1 0.3
638 1 0.85 0.15 0.35
639 1 0.9 0.1 0.3
640 1 0.95 0.15 0.35
641 1 0 0.2 0.3
642 1 0.05 0.25 0.35
643 1 0.1 0.2 0.3
644 1 0.15 0.25 0.35
645 1 0.2 0.2 0.3
646 1 0.25 0.25 0.35
647 1 0.3 0.2 0.3
648 1 0.35 0.25 0.35
649 1 0.4 0.2 0.3
650 1 0.45 0.25 0.35
651 1 0.5 0.2 0.3
652 1 0.55 0.25 0.35
653 1 0.6 0.2 0.3
654 1 0.65 0.25 0.35
655 1 0.7 0.2 0.3
656 1 0.75 0.25 0.35
657 1 0.8 0.2 0.3
658 1 0.85 0.25 0.35
659 1 0.9 0.2 0.3
660 1 0.95 0.25 0.35
661 1 0 0.3 0.3
662 1 0.05 0.35 0.35
663 1 0.1 0.3 0.3
664 1 0.15 0.35 0.35
665 1 0.2 0.3 0.3
666 1 0.25 0.35 0.35
667 1 0.3 0.3 0.3
668 1 0.35 0.35 0.35
669 1 0.4 0.3 0.3
670 1 0.45 0.35 0.35
671 1 0.5 0.3 0.3
672 1 0.55 0.35 0.35
673 1 0.6 0.3 0.3
674 1 0.65 0.35 0.35
675 1 0.7 0.3 0.3
676 1 0.75 0.35 0.35
677 1 0.8 0.3 0.3
678 1 0.85 0.35 0.35
679 1 0.9 0.3 0.3
680 1 0.95 0.35 0.35
681 1 0 0.4 0.3
682 1 0.05 0.45 0.35
683 1 0.1 0.4 0.3
684 1 0.15 0.45 0.35
685 1 0.2 0.4 0.3
686 1 0.25 0.45 0.35
687 1 0.3 0.4 0.3
688 1 0.35 0.45 0.35
689 1 0.4 0.4 0.3
690 1 0.45 0.45 0.35
691 1 0.5 0.4 0.3
692 1 0.55 0.45 0.35
693 1 0.6 0.4 0.3
694 1 0.65 0.45 0.35
695 1 0.7 0.4 0.3
696 1 0.75 0.45 0.35
697 1 0.8 0.4 0.3
698 1 0.85 0.45 0.35
699 1 0.9 0.4 0.3
700 1 0.95 0.45 0.35
701 1 0 0.5 0.3
702 1 0.05 0.55 0.35
703 1 0.1 0.5 0.3
704 1 0.15 0.55 0.35
705 1 0.2 0.5 0.3
706 1 0.25 0.55 0.35
707 1 0.3 0.5 0.3
708 1 0.35 0.55 0.35
709 1 0.4 0.5 0.3
710 1 0.45 0.55 0.35
711 1 0.5 0.5 0.3
712 1 0.55 0.55 0.35
713 1 0.6 0.5 0.3
714 1 0.65 0.55 0.35
715 1 0.7 0.5 0.3
716 1 0.75 0.55 0.35
717 1 0.8 0.5 0.3
718 1 0.85 0.55 0.35
719 1 0.9 0.5 0.3
720 1 0.95 0.55 0.35
721 1 0 0.6 0.3
722 1 0.05 0.65 0.35
723 1 0.1 0.6 0.3
724 1 0.15 0.65 0.35
725 1 0.2 0.6 0.3
726 1 0.25 0.65 0.35
727 1 0.3 0.6 0.3
728 1 0.35 0.65 0.35
729 1 0.4 0.6 0.3
730 1 0.45 0.65 0.35
731 1 0.5 0.6 0.3
732 1 0.55 0.65 0.35
733 1 0.6 0.6 0.3
734 1 0.65 0.65 0.35
735 1 0.7 0.6 0.3
736 1 0.75 0.65 0.35
737 1 0.8 0.6 0.3
738 1 0.85 0.65 0.35
739 1 0.9 0.6 0.3
740 1 0.95 0.65 0.35
741 1 0 0.7 0.3
742 1 0.05 0.75 0.35
743 1 0.1 0.7 0.3
744 1 0.15 0.75 0.35
745 1 0.2 0.7 0.3
746 1 0.25 0.75 0.35
747 1 0.3 0.7 0.3
748 1 0.35 0.75 0.35
749 1 0.4 0.7 0.3
750 1 0.45 0.75 0.35
751 1 0.5 0.7 0.3
752 1 0.55 0.75 0.35
753 1 0.6 0.7 0.3
754 1 0.65 0.75 0.35
755 1 0.7 0.7 0.3
756 1 0.75 0.75 0.35
757 1 0.8 0.7 0.3
758 1 0.85 0.75 0.35
759 1 0.9 0.7 0.3
760 1 0.95 0.75 0.35
761 1 0 0.8 0.3
762 1 0.05 0.85 0.35
763 1 0.1 0.8 0.3
764 1 0.15 0.85 0.35
765 1 0.2 0.8 0.3
766 1 0.25 0.85 0.35
767 1 0.3 0.8 0.3
768 1 0.35 0.85 0.35
769 1 0.4 0.8 0.3
770 1 0.45 0.85 0.35
771 1 0.5 0.8 0.3
772 1 0.55 0.85 0.35
773 1 0.6 0.8 0.3
774 1 0.65 0.85 0.35
775 1 0.7 0.8 0.3
776 1 0.75 0.85 0.35
777 1 0.8 0.8 0.3
778 1 0.85 0.85 0.35
779 1 0.9 0.8 0.3
780 1 0.95 0.85 0.35
781 1 0 0.9 0.3
782 1 0.05 0.95 0.35
783 1 0.1 0.9 0.3
784 1 0.15 0.95 0.35
785 1 0.2 0.9 0.3
786 1 0.25 0.95 0.35
787 1 0.3 0.9 0.3
788 1 0.35 0.95 0.35
789 1 0.4 0.9 0.3
790 1 0.45 0.95 0.35
791 1 0.5 0.9 0.3
792 1 0.55 0.95 0.35
793 1 0.6 0.9 0.3
794 1 0.65 0.95 0.35
795 1 0.7 0.9 0.3
796 1 0.75 0.95 0.35
797 1 0.8 0.9 0.3
798 1 0.85 0.95 0.35
799 1 0.9 0.9 0.3
800 1 0.95 0.95 0.35
801 1 0 0 0.4
802 1 0.05 0.05 0.45
803 1 0.1 0 0.4
804 1 0.15 0.05 0.45
805 1 0.2 0 0.4
806 1 0.25 0.05 0.45
807 1 0.3 0 0.4
808 1 0.35 0.05 0.45
809 1 0.4 0 0.4
810 1 0.45 0.05 0.45
811 1 0.5 0 0.4
812 1 0.55 0.05 0.45
813 1 0.6 0 0.4
814 1 0.65 0.05 0.45
815 1 0.7 0 0.4
816 1 0.75 0.05 0.45
817 1 0.8 0 0.4
818 1 0.85 0.05 0.45
819 1 0.9 0 0.4
820 1 0.95 0.05 0.45
821 1 0 0.1 0.4
822 1 0.05 0.15 0.45
823 1 0.1 0.1 0.4
824 1 0.15 0.15 0.45
825 1 0.2 0.1 0.4
826 1 0.25 0.15 0.45
827 1 0.3 0.1 0.4
828 1 0.35 0.15 0.45
829 1 0.4 0.1 0.4
830 1 0.45 0.15 0.45
831 1 0.5 0.1 0.4
832 1 0.55 0.15 0.45
833 1 0.6 0.1 0.4
834 1 0.65 0.15 0.45
835 1 0.7 0.1 0.4
836 1 0.75 0.15 0.45
837 1 0.8 0.1 0.4
838 1 0.85 0.15 0.45
839 1 0.9 0.1 0.4
840 1 0.95 0.15 0.45
841 1 0 0.2 0.4
842 1 0.05 0.25 0.45
843 1 0.1 0.2 0.4
844 1 0.15 0.25 0.45
845 1 0.2 0.2 0.4
846 1 0.25 0.25 0.45
847 1 0.3 0.2 0.4
848 1 0.35 0.25 0.45
849 1 0.4 0.2 0.4
850 1 0.45 0.25 0.45
851 1 0.5 0.2 0.4
852 1 0.55 0.25 0.45
853 1 0.6 0.2 0.4
854 1 0.65 0.25 0.45
855 1 0.7 0.2 0.4
856 1 0.75 0.25 0.45
857 1 0.8 0.2 0.4
858 1 0.85 0.25 0.45
859 1 0.9 0.2 0.4
860 1 0.95 0.25 0.45
861 1 0 0.3 0.4
862 1 0.05 0.35 0.45
863 1 0.1 0.3 0.4
864 1 0.15 0.35 0.45
865 1 0.2 0.3 0.4
866 1 0.25 0.35 0.45
867 1 0.3 0.3 0.4
868 1 0.35 0.35 0.45
869 1 0.4 0.3 0.4
870 1 0.45 0.35 0.45
871 1 0.5 0.3 0.4
872 1 0.55 0.35 0.45
873 1 0.6 0.3 0.4
874 1 0.65 0.35 0.45
875 1 0.7 0.3 0.4
876 1 0.75 0.35 0.45
877 1 0.8 0.3 0.4
878 1 0.85 0.35 0.45
879 1 0.9 0.3 0.4
880 1 0.95 0.35 0.45
881 1 0 0.4 0.4
882 1 0.05 0.45 0.45
883 1 0.1 0.4 0.4
884 1 0.15 0.45 0.45
885 1 0.2 0.4 0.4
886 1 0.25 0.45 0.45
887 1 0.3 0.4 0.4
888 1 0.35 0.45 0.45
889 1 0.4 0.4 0.4
890 1 0.45 0.45 0.45
891 1 0.5 0.4 0.4
892 1 0.55 0.45 0.45
893 1 0.6 0.4 0.4
894 1 0.65 0.45 0.45
895 1 0.7 0.4 0.4
896 1 0.75 0.45 0.45
897 1 0.8 0.4 0.4
898 1 0.85 0.45 0.45
899 1 0.9 0.4 0.4
900 1 0.95 0.45 0.45
901 1 0 0.5 0.4
902 1 0.05 0.55 0.45
903 1 0.1 0.5 0.4
904 1 0.15 0.55 0.45
905 1 0.2 0.5 0.4
906 1 0.25 0.55 0.45
907 1 0.3 0.5 0.4
908 1 0.35 0.55 0.45
909 1 0.4 0.5 0.4
910 1 0.45 0.55 0.45
911 1 0.5 0.5 0.4
912 1 0.55 0.55 0.45
913 1 0.6 0.5 0.4
914 1 0.65 0.55 0.45
915 1 0.7 0.5 0.4
916 1 0.75 0.55 0.45
917 1 0.8 0.5 0.4
918 1 0.85 0.55 0.45
919 1 0.9 0.5 0.4
920 1 0.95 0.55 0.45
921 1 0 0.6 0.4
922 1 0.05 0.65 0.45
923 1 0.1 0.6 0.4
924 1 0.15 0.65 0.45
925 1 0.2 0.6 0.4
926 1 0.25 0.65 0.45
927 1 0.3 0.6 0.4
928 1 0.35 0.65 0.45
929 1 0.4 0.6 0.4
930 1 0.45 0.65 0.45
931 1 0.5 0.6 0.4
932 1 0.55 0.65 0.45
933 1 0.6 0.6 0.4
934 1 0.65 0.65 0.45
935 1 0.7 0.6 0.4
936 1 0.75 0.65 0.45
937 1 0.8 0.6 0.4
938 1 0.85 0.65 0.45
939 1 0.9 0.6 0.4
940 1 0.95 0.65 0.45
941 1 0 0.7 0.4
942 1 0.05 0.75 0.45
943 1 0.1 0.7 0.4
944 1 0.15 0.75 0.45
945 1 0.2 0.7 0.4
946 1 0.25 0.75 0.45
947 1 0.3 0.7 0.4
948 1 0.35 0.75 0.45
949 1 0.4 0.7 0.4
950 1 0.45 0.75 0.45
951 1 0.5 0.7 0.4
952 1 0.55 0.75 0.45
953 1 0.6 0.7 0.4
954 1 0.65 0.75 0.45
955 1 0.7 0.7 0.4
956 1 0.75 0.75 0.45
957 1 0.8 0.7 0.4
958 1 0.85 0.75 0.45
959 1 0.9 0.7 0.4
960 1 0.95 0.75 0.45
961 1 0 0.8 0.4
962 1 0.05 0.85 0.45
963 1 0.1 0.8 0.4
964 1 0.15 0.85 0.45
965 1 0.2 0.8 0.4
966 1 0.25 0.85 0.45
967 1 0.3 0.8 0.4
968 1 0.35 0.85 0.45
969 1 0.4 0.8 0.4
970 1 0.45 0.85 0.45
971 1 0.5 0.8 0.4
972 1 0.55 0.85 0.45
973 1 0.6 0.8 0.4
974 1 0.65 0.85 0.45
975 1 0.7 0.8 0.4
976 1 0.75 0.85 0.45
977 1 0.8 0.8 0.4
978 1 0.85 0.85 0.45
979 1 0.9 0.8 0.4
980 1 0.95 0.85 0.45
981 1 0 0.9 0.4
982 1 0.05 0.95 0.45
983 1 0.1 0.9 0.4
984 1 0.15 0.95 0.45
985 1 0.2 0.9 0.4
986 1 0.25 0.95 0.45
987 1 0.3 0.9 0.4
988 1 0.35 0.95 0.45
989 1 0.4 0.9 0.4
990 1 0.45 0.95 0.45
991 1 0.5 0.9 0.4
992 1 0.55 0.95 0.45
993 1 0.6 0.9 0.4
994 1 0.65 0.95 0.45
995 1 0.7 0.9 0.4
996 1 0.75 0.95 0.45
997 1 0.8 0.9 0.4
998 1 0.85 0.95 0.45
999 1 0.9 0.9 0.4
1000 1 0.95 0.95 0.45
1001 1 0 0 0.5
1002 1 0.05 0.05 0.55
1003 1 0.1 0 0.5
1004 1 0.15 0.05 0.55
1005 1 0.2 0 0.5
1006 1 0.25 0.05 0.55
1007 1 0.3 0 0.5
1008 1 0.35 0.05 0.55
1009 1 0.4 0 0.5
1010 1 0.45 0.05 0.55
1011 1 0.5 0 0.5
1012 1 0.55 0.05 0.55
1013 1 0.6 0 0.5
1014 1 0.65 0.05 0.55
1015 1 0.7 0 0.5
1016 1 0.75 0.05 0.55
1017 1 0.8 0 0.5
1018 1 0.85 0.05 0.55
1019 1 0.9 0 0.5
1020 1 0.95 0.05 0.55
1021 1 0 0.1 0.5
1022 1 0.05 0.15 0.55
1023 1 0.1 0.1 0.5
1024 1 0.15 0.15 0.55
1025 1 0.2 0.1 0.5
1026 1 0.25 0.15 0.55
1027 1 0.3 0.1 0.5
1028 1 0.35 0.15 0.55
1029 1 0.4 0.1 0.5
1030 1 0.45 0.15 0.55
1031 1 0.5 0.1 0.5
1032 1 0.55 0.15 0.55
1033 1 0.6 0.1 0.5
1034 1 0.65 0.15 0.55
1035 1 0.7 0.1 0.5
1036 1 0.75 0.15 0.55
1037 1 0.8 0.1 0.5
1038 1 0.85 0.15 0.55
1039 1 0.9 0.1 0.5
1040 1 0.95 0.15 0.55
1041 1 0 0.2 0.5
1042 1 0.05 0.25 0.55
1043 1 0.1 0.2 0.5
1044 1 0.15 0.25 0.55
1045 1 0.2 0.2 0.5
1046 1 0.25 0.25 0.55
1047 1 0.3 0.2 0.5
1048 1 0.35 0.25 0.55
1049 1 0.4 0.2 0.5
1050 1 0.45 0.25 0.55
1051 1 0.5 0.2 0.5
1052 1 0.55 0.25 0.55
1053 1 0.6 0.2 0.5
1054 1 0.65 0.25 0.55
1055 1 0.7 0.2 0.5
1056 1 0.75 0.25 0.55
1057 1 0.8 0.2 0.5
1058 1 0.85 0.25 0.55
1059 1 0.9 0.2 0.5
1060 1 0.95 0.25 0.55
1061 1 0 0.3 0.5
1062 1 0.05 0.35 0.55
1063 1 0.1 0.3 0.5
1064 1 0.15 0.35 0.55
1065 1 0.2 0.3 0.5
1066 1 0.25 0.35 0.55
1067 1 0.3 0.3 0.5
1068 1 0.35 0.35 0.55
1069 1 0.4 0.3 0.5
1070 1 0.45 0.35 0.55
1071 1 0.5 0.3 0.5
1072 1 0.55 0.35 0.55
1073 1 0.6 0.3 0.5
1074 1 0.65 0.35 0.55
1075 1 0.7 0.3 0.5
1076 1 0.75 0.35 0.55
1077 1 0.8 0.3 0.5
1078 1 0.85 0.35 0.55
1079 1 0.9 0.3 0.5
1080 1 0.95 0.35 0.55
1081 1 0 0.4 0.5
1082 1 0.05 0.45 0.55
1083 1 0.1 0.4 0.5
1084 1 0.15 0.45 0.55
1085 1 0.2 0.4 0.5
1086 1 0.25 0.45 0.55
1087 1 0.3 0.4 0.5
1088 1 0.35 0.45 0.55
1089 1 0.4 0.4 0.5
1090 1 0.45 0.45 0.55
1091 1 0.5 0.4 0.5
1092 1 0.55 0.45 0.55
1093 1 0.6 0.4 0.5
1094 1 0.65 0.45 0.55
1095 1 0.7 0.4 0.5
1096 1 0.75 0.45 0.55
1097 1 0.8 0.4 0.5
1098 1 0.85 0.45 0.55
1099 1 0.9 0.4 0.5
1100 1 0.95 0.45 0.55
1101 1 0 0.5 0.5
1102 1 0.05 0.55 0.55
1103 1 0.1 0.5 0.5
1104 1 0.15 0.55 0.55
1105 1 0.2 0.5 0.5
1106 1 0.25 0.55 0.55
1107 1 0.3 0.5 0.5
1108 1 0.35 0.55 0.55
1109 1 0.4 0.5 0.5
1110 1 0.45 0.55 0.55
1111 1 0.5 0.5 0.5
1112 1 0.55 0.55 0.55
1113 1 0.6 0.5 0.5
1114 1 0.65 0.55 0.55
1115 1 0.7 0.5 0.5
1116 1 0.75 0.55 0.55
1117 1 0.8 0.5 0.5
1118 1 0.85 0.55 0.55
1119 1 0.9 0.5 0.5
1120 1 0.95 0.55 0.55
1121 1 0 0.6 0.5
1122 1 0.05 0.65 0.55
1123 1 0.1 0.6 0.5
1124 1 0.15 0.65 0.55
1125 1 0.2 0.6 0.5
1126 1 0.25 0.65 0.55
1127 1 0.3 0.6 0.5
1128 1 0.35 0.65 0.55
1129 1 0.4 0.6 0.5
1130 1 0.45 0.65 0.55
1131 1 0.5 0.6 0.5
1132 1 0.55 0.65 0.55
1133 1 0.6 0.6 0.5
1134 1 0.65 0.65 0.55
1135 1 0.7 0.6 0.5
1136 1 0.75 0.65 0.55
1137 1 0.8 0.6 0.5
1138 1 0.85 0.65 0.55
1139 1 0.9 0.6 0.5
1140 1 0.95 0.65 0.55
1141 1 0 0.7 0.5
1142 1 0.05 0.75 0.55
1143 1 0.1 0.7 0.5
1144 1 0.15 0.75 0.55
1145 1 0.2 0.7 0.5
1146 1 0.25 0.75 0.55
1147 1 0.3 0.7 0.5
1148 1 0.35 0.75 0.55
1149 1 0.4 0.7 0.5
1150 1 0.45 0.75 0.55
1151 1 0.5 0.7 0.5
1152 1 0.55 0.75 0.55
1153 1 0.6 0.7 0.5
1154 1 0.65 0.75 0.55
1155 1 0.7 0.7 0.5
1156 1 0.75 0.75 0.55
1157 1 0.8 0.7 0.5
1158 1 0.85 0.75 0.55
1159 1 0.9 0.7 0.5
1160 1 0.95 0.75 0.55
1161 1 0 0.8 0.5
1162 1 0.05 0.85 0.55
1163 1 0.1 0.8 0.5
1164 1 0.15 0.85 0.55
1165 1 0.2 0.8 0.5
1166 1 0.25 0.85 0.55
1167 1 0.3 0.8 0.5
1168 1 0.35 0.85 0.55
1169 1 0.4 0.8 0.5
1170 1 0.45 0.85 0.55
1171 1 0.5 0.8 0.5
1172 1 0.55 0.85 0.55
1173 1 0.6 0.8 0.5
1174 1 0.65 0.85 0.55
1175 1 0.7 0.8 0.5
1176 1 0.75 0.85 0.55
1177 1 0.8 0.8 0.5
1178 1 0.85 0.85 0.55
1179 1 0.9 0.8 0.5
1180 1 0.95 0.85 0.55
1181 1 0 0.9 0.5
1182 1 0.05 0.95 0.55
1183 1 0.1 0.9 0.5
1184 1 0.15 0.95 0.55
1185 1 0.2 0.9 0.5
1186 1 0.25 0.95 0.55
1187 1 0.3 0.9 0.5
1188 1 0.35 0.95 0.55
1189 1 0.4 0.9 0.5
1190 1 0.45 0.95 0.55
1191 1 0.5 0.9 0.5
1192 1 0.55 0.95 0.55
1193 1 0.6 0.9 0.5
1194 1 0.65 0.95 0.55
1195 1 0.7 0.9 0.5
1196 1 0.75 0.95 0.55
1197 1 0.8 0.9 0.5
1198 1 0.85 0.95 0.55
1199 1 0.9 0.9 0.5
1200 1 0.95 0.95 0.55
1201 1 0 0 0.6
1202 1 0.05 0.05 0.65
1203 1 0.1 0 0.6
1204 1 0.15 0.05 0.65
1205 1 0.2 0 0.6
1206 1 0.25 0.05 0.65
1207 1 0.3 0 0.6
1208 1 0.35 0.05 0.65
1209 1 0.4 0 0.6
1210 1 0.45 0.05 0.65
1211 1 0.5 0 0.6
1212 1 0.55 0.05 0.65
1213 1 0.6 0 0.6
1214 1 0.65 0.05 0.65
1215 1 0.7 0 0.6
1216 1 0.75 0.05 0.65
1217 1 0.8 0 0.6
1218 1 0.85 0.05 0.65
1219 1 0.9 0 0.6
1220 1 0.95 0.05 0.65
1221 1 0 0.1 0.6
1222 1 0.05 0.15 0.65
1223 1 0.1 0.1 0.6
1224 1 0.15 0.15 0.65
1225 1 0.2 0.1 0.6
1226 1 0.25 0.15 0.65
1227 1 0.3 0.1 0.6
1228 1 0.35 0.15 0.65
1229 1 0.4 0.1 0.6
1230 1 0.45 0.15 0.65
1231 1 0.5 0.1 0.6
1232 1 0.55 0.15 0.65
1233 1 0.6 0.1 0.6
1234 1 0.65 0.15 0.65
1235 1 0.7 0.1 0.6
1236 1 0.75 0.15 0.65
1237 1 0.8 0.1 0.6
1238 1 0.85 0.15 0.65
1239 1 0.9 0.1 0.6
1240 1 0.95 0.15 0.65
1241 1 0 0.2 0.6
1242 1 0.05 0.25 0.65
1243 1 0.1 0.2 0.6
1244 1 0.15 0.25 0.65
1245 1 0.2 0.2 0.6
1246 1 0.25 0.25 0.65
1247 1 0.3 0.2 0.6
1248 1 0.35 0.25 0.65
1249 1 0.4 0.2 0.6
1250 1 0.45 0.25 0.65
1251 1 0.5 0.2 0.6
1252 1 0.55 0.25 0.65
1253 1 0.6 0.2 0.6
1254 1 0.65 0.25 0.65
1255 1 0.7 0.2 0.6
1256 1 0.75 0.25 0.65
1257 1 0.8 0.2 0.6
1258 1 0.85 0.25 0.65
1259 1 0.9 0.2 0.6
1260 1 0.95 0.25 0.65
1261 1 0 0.3 0.6
1262 1 0.05 0.35 0.65
1263 1 0.1 0.3 0.6
1264 1 0.15 0.35 0.65
1265 1 0.2 0.3 0.6
1266 1 0.25 0.35 0.65
1267 1 0.3 0.3 0.6
1268 1 0.35 0.35 0.65
1269 1 0.4 0.3 0.6
1270 1 0.45 0.35 0.65
1271 1 0.5 0.3 0.6
1272 1 0.55 0.35 0.65
1273 1 0.6 0.3 0.6
1274 1 0.65 0.35 0.65
1275 1 0.7 0.3 0.6
1276 1 0.75 0.35 0.65
1277 1 0.8 0.3 0.6
1278 1 0.85 0.35 0.65
1279 1 0.9 0.3 0.6
1280 1 0.95 0.35 0.65
1281 1 0 0.4 0.6
1282 1 0.05 0.45 0.65
1283 1 0.1 0.4 0.6
1284 1 0.15 0.45 0.65
1285 1 0.2 0.4 0.6
1286 1 0.25 0.45 0.65
1287 1 0.3 0.4 0.6
1288 1 0.35 0.45 0.65
1289 1 0.4 0.4 0.6
1290 1 0.45 0.45 0.65
1291 1 0.5 0.4 0.6
1292 1 0.55 0.45 0.65
1293 1 0.6 0.4 0.6
1294 1 0.65 0.45 0.65
1295 1 0.7 0.4 0.6
1296 1 0.75 0.45 0.65
1297 1 0.8 0.4 0.6
1298 1 0.85 0.45 0.65
1299 1 0.9 0.4 0.6
1300 1 0.95 0.45 0.65
1301 1 0 0.5 0.6
1302 1 0.05 0.55 0.65
1303 1 0.1 0.5 0.6
1304 1 0.15 0.55 0.65
1305 1 0.2 0.5 0.6
1306 1 0.25 0.55 0.65
1307 1 0.3 0.5 0.6
1308 1 0.35 0.55 0.65
1309 1 0.4 0.5 0.6
1310 1 0.45 0.55 0.65
1311 1 0.5 0.5 0.6
1312 1 0.55 0.55 0.65
1313 1 0.6 0.5 0.6
1314 1 0.65 0.55 0.65
1315 1 0.7 0.5 0.6
1316 1 0.75 0.55 0.65
1317 1 0.8 0.5 0.6
1318 1 0.85 0.55 0.65
1319 1 0.9 0.5 0.6
1320 1 0.95 0.55 0.65
1321 1 0 0.6 0.6
1322 1 0.05 0.65 0.65
1323 1 0.1 0.6 0.6
1324 1 0.15 0.65 0.65
1325 1 0.2 0.6 0.6
1326 1 0.25 0.65 0.65
1327 1 0.3 0.6 0.6
1328 1 0.35 0.65 0.65
1329 1 0.4 0.6 0.6
1330 1 0.45 0.65 0.65
1331 1 0.5 0.6 0.6
1332 1 0.55 0.65 0.65
1333 1 0.6 0.6 0.6
1334 1 0.65 0.65 0.65
1335 1 0.7 0.6 0.6
1336 1 0.75 0.65 0.65
1337 1 0.8 0.6 0.6
1338 1 0.85 0.65 0.65
1339 1 0.9 0.6 0.6
1340 1 0.95 0.65 0.65
1341 1 0 0.7 0.6
1342 1 0.05 0.75 0.65
1343 1 0.1 0.7 0.6
1344 1 0.15 0.75 0.65
1345 1 0.2 0.7 0.6
1346 1 0.25 0.75 0.65
1347 1 0.3 0.7 0.6
1348 1 0.35 0.75 0.65
1349 1 0.4 0.7 0.6
1350 1 0.45 0.75 0.65
1351 1 0.5 0.7 0.6
1352 1 0.55 0.75 0.65
1353 1 0.6 0.7 0.6
1354 1 0.65 0.75 0.65
1355 1 0.7 0.7 0.6
1356 1 0.75 0.75 0.65
1357 1 0.8 0.7 0.6
1358 1 0.85 0.75 0.65
1359 1 0.9 0.7 0.6
1360 1 0.95 0.75 0.65
1361 1 0 0.8 0.6
1362 1 0.05 0.85 0.65
1363 1 0.1 0.8 0.6
1364 1 0.15 0.85 0.65
1365 1 0.2 0.8 0.6
1366 1 0.25 0.85 0.65
1367 1 0.3 0.8 0.6
1368 1 0.35 0.85 0.65
1369 1 0.4 0.8 0.6
1370 1 0.45 0.85 0.65
1371 1 0.5 0.8 0.6
1372 1 0.55 0.85 0.65
1373 1 0.6 0.8 0.6
1374 1 0.65 0.85 0.65
1375 1 0.7 0.8 0.6
1376 1 0.75 0.85 0.65
1377 1 0.8 0.8 0.6
1378 1 0.85 0.85 0.65
1379 1 0.9 0.8 0.6
1380 1 0.95 0.85 0.65
1381 1 0 0.9 0.6
1382 1 0.05 0.95 0.65
1383 1 0.1 0.9 0.6
1384 1 0.15 0.95 0.65
1385 1 0.2 0.9 0.6
1386 1 0.25 0.95 0.65
1387 1 0.3 0.9 0.6
1388 1 0.35 0.95 0.65
1389 1 0.4 0.9 0.6
1390 1 0.45 0.95 0.65
1391 1 0.5 0.9 0.6
1392 1 0.55 0.95 0.65
1393 1 0.6 0.9 0.6
1394 1 0.65 0.95 0.65
1395 1 0.7 0.9 0.6
1396 1 0.75 0.95 0.65
1397 1 0.8 0.9 0.6
1398 1 0.85 0.95 0.65
1399 1 0.9 0.9 0.6
1400 1 0.95 0.95 0.65
1401 1 0 0 0.7
1402 1 0.05 0.05 0.75
1403 1 0.1 0 0.7
1404 1 0.15 0.05 0.75
1405 1 0.2 0 0.7
1406 1 0.25 0.05 0.75
1407 1 0.3 0 0.7
1408 1 0.35 0.05 0.75
1409 1 0.4 0 0.7
1410 1 0.45 0.05 0.75
1411 1 0.5 0 0.7
1412 1 0.55 0.05 0.75
1413 1 0.6 0 0.7
1414 1 0.65 0.05 0.75
1415 1 0.7 0 0.7
1416 1 0.75 0.05 0.75
1417 1 0.8 0 0.7
1418 1 0.85 0.05 0.75
1419 1 0.9 0 0.7
1420 1 0.95 0.05 0.75
1421 1 0 0.1 0.7
1422 1 0.05 0.15 0.75
1423 1 0.1 0.1 0.7
1424 1 0.15 0.15 0.75
1425 1 0.2 0.1 0.7
1426 1 0.25 0.15 0.75
1427 1 0.3 0.1 0.7
1428 1 0.35 0.15 0.75
1429 1 0.4 0.1 0.7
1430 1 0.45 0.15 0.75
1431 1 0.5 0.1 0.7
1432 1 0.55 0.15 0.75
1433 1 0.6 0.1 0.7
1434 1 0.65 0.15 0.75
1435 1 0.7 0.1 0.7
1436 1 0.75 0.15 0.75
1437 1 0.8 0.1 0.7
1438 1 0.85 0.15 0.75
1439 1 0.9 0.1 0.7
1440 1 0.95 0.15 0.75
1441 1 0 0.2 0.7
1442 1 0.05 0.25 0.75
1443 1 0.1 0.2 0.7
1444 1 0.15 0.25 0.75
1445 1 0.2 0.2 0.7
1446 1 0.25 0.25 0.75
1447 1 0.3 0.2 0.7
1448 1 0.35 0.25 0.75
1449 1 0.4 0.2 0.7
1450 1 0.45 0.25 0.75
1451 1 0.5 0.2 0.7
1452 1 0.55 0.25 0.75
1453 1 0.6 0.2 0.7
1454 1 0.65 0.25 0.75
1455 1 0.7 0.2 0.7
1456 1 0.75 0.25 0.75
1457 1 0.8 0.2 0.7
1458 1 0.85 0.25 0.75
1459 1 0.9 0.2 0.7
1460 1 0.95 0.25 0.75
1461 1 0 0.3 0.7
1462 1 0.05 0.35 0.75
1463 1 0.1 0.3 0.7
1464 1 0.15 0.35 0.75
1465 1 0.2 0.3 0.7
1466 1 0.25 0.35 0.75
1467 1 0.3 0.3 0.7
1468 1 0.35 0.35 0.75
1469 1 0.4 0.3 0.7
1470 1 0.45 0.35 0.75
1471 1 0.5 0.3 0.7
1472 1 0.55 0.35 0.75
1473 1 0.6 0.3 0.7
1474 1 0.65 0.35 0.75
1475 1 0.7 0.3 0.7
1476 1 0.75 0.35 0.75
1477 1 0.8 0.3 0.7
1478 1 0.85 0.35 0.75
1479 1 0.9 0.3 0.7
1480 1 0.95 0.35 0.75
1481 1 0 0.4 0.7
1482 1 0.05 0.45 0.75
1483 1 0.1 0.4 0.7
1484 1 0.15 0.45 0.75
1485 1 0.2 0.4 0.7
1486 1 0.25 0.45 0.75
1487 1 0.3 0.4 0.7
1488 1 0.35 0.45 0.75
1489 1 0.4 0.4 0.7
1490 1 0.45 0.45 0.75
1491 1 0.5 0.4 0.7
1492 1 0.55 0.45 0.75
1493 1 0.6 0.4 0.7
1494 1 0.65 0.45 0.75
1495 1 0.7 0.4 0.7
1496 1 0.75 0.45 0.75
1497 1 0.8 0.4 0.7
1498 1 0.85 0.45 0.75
1499 1 0.9 0.4 0.7
1500 1 0.95 0.45 0.75
1501 1 0 0.5 0.7
1502 1 0.05 0.55 0.75
1503 1 0.1 0.5 0.7
1504 1 0.15 0.55 0.75
1505 1 0.2 0.5 0.7
1506 1 0.25 0.55 0.75
1507 1 0.3 0.5 0.7
1508 1 0.35 0.55 0.75
1509 1 0.4 0.5 0.7
1510 1 0.45 0.55 0.75
1511 1 0.5 0.5 0.7
1512 1 0.55 0.55 0.75
1513 1 0.6 0.5 0.7
1514 1 0.65 0.55 0.75
1515 1 0.7 0.5 0.7
1516 1 0.75 0.55 0.75
1517 1 0.8 0.5 0.7
1518 1 0.85 0.55 0.75
1519 1 0.9 0.5 0.7
1520 1 0.95 0.55 0.75
1521 1 0 0.6 0.7
1522 1 0.05 0.65 0.75
1523 1 0.1 0.6 0.7
1524 1 0.15 0.65 0.75
1525 1 0.2 0.6 0.7
1526 1 0.25 0.65 0.75
1527 1 0.3 0.6 0.7
1528 1 0.35 0.65 0.75
1529 1 0.4 0.6 0.7
1530 1 0.45 0.65 0.75
1531 1 0.5 0.6 0.7