ITEM: TIMESTEP
0
ITEM: NUMBER OF ATOMS
6750
ITEM: BOX BOUNDS pp pp pp
0.0000000000000000e+00 5.2589999999999996e+01
0.0000000000000000e+00 5.2589999999999996e+01
0.0000000000000000e+00 5.2589999999999996e+01
ITEM: ATOMS id type xs ys zs
1 1 0 0 0
2 1 0.0333333 0.0333333 0.0333333
3 1 0.0666667 0 0
31 1 0 0.0666667 0
33 1 0.0666667 0.0666667 0
451 1 0 0 0.0666667
453 1 0.0666667 0 0.0666667
481 1 0 0.0666667 0.0666667
483 1 0.0666667 0.0666667 0.0666667
4 1 0.1 0.0333333 0.0333333
5 1 0.133333 0 0
35 1 0.133333 0.0666667 0
455 1 0.133333 0 0.0666667
485 1 0.133333 0.0666667 0.0666667
6 1 0.166667 0.0333333 0.0333333
7 1 0.2 0 0
37 1 0.2 0.0666667 0
457 1 0.2 0 0.0666667
487 1 0.2 0.0666667 0.0666667
8 1 0.233333 0.0333333 0.0333333
9 1 0.266667 0 0
10 1 0.3 0.0333333 0.0333333
39 1 0.266667 0.0666667 0
459 1 0.266667 0 0.0666667
489 1 0.266667 0.0666667 0.0666667
11 1 0.333333 0 0
12 1 0.366667 0.0333333 0.0333333
41 1 0.333333 0.0666667 0
461 1 0.333333 0 0.0666667
491 1 0.333333 0.0666667 0.0666667
13 1 0.4 0 0
14 1 0.433333 0.0333333 0.0333333
43 1 0.4 0.0666667 0
463 1 0.4 0 0.0666667
493 1 0.4 0.0666667 0.0666667
15 1 0.466667 0 0
16 1 0.5 0.0333333 0.0333333
17 1 0.533333 0 0
45 1 0.466667 0.0666667 0
47 1 0.533333 0.0666667 0
465 1 0.466667 0 0.0666667
467 1 0.533333 0 0.0666667
495 1 0.466667 0.0666667 0.0666667
497 1 0.533333 0.0666667 0.0666667
18 1 0.566667 0.0333333 0.0333333
19 1 0.6 0 0
49 1 0.6 0.0666667 0
469 1 0.6 0 0.0666667
499 1 0.6 0.0666667 0.0666667
20 1 0.633333 0.0333333 0.0333333
21 1 0.666667 0 0
51 1 0.666667 0.0666667 0
471 1 0.666667 0 0.0666667
501 1 0.666667 0.0666667 0.0666667
22 1 0.7 0.0333333 0.0333333
23 1 0.733333 0 0
24 1 0.766667 0.0333333 0.0333333
53 1 0.733333 0.0666667 0
473 1 0.733333 0 0.0666667
503 1 0.733333 0.0666667 0.0666667
25 1 0.8 0 0
26 1 0.833333 0.0333333 0.0333333
55 1 0.8 0.0666667 0
475 1 0.8 0 0.0666667
505 1 0.8 0.0666667 0.0666667
27 1 0.866667 0 0
28 1 0.9 0.0333333 0.0333333
57 1 0.866667 0.0666667 0
477 1 0.866667 0 0.0666667
507 1 0.866667 0.0666667 0.0666667
29 1 0.933333 0 0
30 1 0.966667 0.0333333 0.0333333
59 1 0.933333 0.0666667 0
479 1 0.933333 0 0.0666667
509 1 0.933333 0.0666667 0.0666667
32 1 0.0333333 0.1 0.0333333
61 1 0 0.133333 0
63 1 0.0666667 0.133333 0
511 1 0 0.133333 0.0666667
513 1 0.0666667 0.133333 0.0666667
34 1 0.1 0.1 0.0333333
65 1 0.133333 0.133333 0
515 1 0.133333 0.133333 0.0666667
36 1 0.166667 0.1 0.0333333
67 1 0.2 0.133333 0
517 1 0.2 0.133333 0.0666667
38 1 0.233333 0.1 0.0333333
40 1 0.3 0.1 0.0333333
69 1 0.266667 0.133333 0
519 1 0.266667 0.133333 0.0666667
42 1 0.366667 0.1 0.0333333
71 1 0.333333 0.133333 0
521 1 0.333333 0.133333 0.0666667
44 1 0.433333 0.1 0.0333333
73 1 0.4 0.133333 0
523 1 0.4 0.133333 0.0666667
46 1 0.5 0.1 0.0333333
75 1 0.466667 0.133333 0
77 1 0.533333 0.133333 0
525 1 0.466667 0.133333 0.0666667
527 1 0.533333 0.133333 0.0666667
48 1 0.566667 0.1 0.0333333
79 1 0.6 0.133333 0
529 1 0.6 0.133333 0.0666667
50 1 0.633333 0.1 0.0333333
81 1 0.666667 0.133333 0
531 1 0.666667 0.133333 0.0666667
52 1 0.7 0.1 0.0333333
54 1 0.766667 0.1 0.0333333
83 1 0.733333 0.133333 0
533 1 0.733333 0.133333 0.0666667
56 1 0.833333 0.1 0.0333333
85 1 0.8 0.133333 0
535 1 0.8 0.133333 0.0666667
58 1 0.9 0.1 0.0333333
87 1 0.866667 0.133333 0
537 1 0.866667 0.133333 0.0666667
60 1 0.966667 0.1 0.0333333
89 1 0.933333 0.133333 0
539 1 0.933333 0.133333 0.0666667
62 1 0.0333333 0.166667 0.0333333
91 1 0 0.2 0
93 1 0.0666667 0.2 0
541 1 0 0.2 0.0666667
543 1 0.0666667 0.2 0.0666667
64 1 0.1 0.166667 0.0333333
95 1 0.133333 0.2 0
545 1 0.133333 0.2 0.0666667
66 1 0.166667 0.166667 0.0333333
97 1 0.2 0.2 0
547 1 0.2 0.2 0.0666667
68 1 0.233333 0.166667 0.0333333
70 1 0.3 0.166667 0.0333333
99 1 0.266667 0.2 0
549 1 0.266667 0.2 0.0666667
72 1 0.366667 0.166667 0.0333333
101 1 0.333333 0.2 0
551 1 0.333333 0.2 0.0666667
74 1 0.433333 0.166667 0.0333333
103 1 0.4 0.2 0
553 1 0.4 0.2 0.0666667
76 1 0.5 0.166667 0.0333333
105 1 0.466667 0.2 0
107 1 0.533333 0.2 0
555 1 0.466667 0.2 0.0666667
557 1 0.533333 0.2 0.0666667
78 1 0.566667 0.166667 0.0333333
109 1 0.6 0.2 0
559 1 0.6 0.2 0.0666667
80 1 0.633333 0.166667 0.0333333
111 1 0.666667 0.2 0
561 1 0.666667 0.2 0.0666667
82 1 0.7 0.166667 0.0333333
84 1 0.766667 0.166667 0.0333333
113 1 0.733333 0.2 0
563 1 0.733333 0.2 0.0666667
86 1 0.833333 0.166667 0.0333333
115 1 0.8 0.2 0
565 1 0.8 0.2 0.0666667
88 1 0.9 0.166667 0.0333333
117 1 0.866667 0.2 0
567 1 0.866667 0.2 0.0666667
90 1 0.966667 0.166667 0.0333333
119 1 0.933333 0.2 0
569 1 0.933333 0.2 0.0666667
92 1 0.0333333 0.233333 0.0333333
121 1 0 0.266667 0
122 1 0.0333333 0.3 0.0333333
123 1 0.0666667 0.266667 0
571 1 0 0.266667 0.0666667
573 1 0.0666667 0.266667 0.0666667
94 1 0.1 0.233333 0.0333333
124 1 0.1 0.3 0.0333333
125 1 0.133333 0.266667 0
575 1 0.133333 0.266667 0.0666667
96 1 0.166667 0.233333 0.0333333
126 1 0.166667 0.3 0.0333333
127 1 0.2 0.266667 0
577 1 0.2 0.266667 0.0666667
98 1 0.233333 0.233333 0.0333333
100 1 0.3 0.233333 0.0333333
128 1 0.233333 0.3 0.0333333
129 1 0.266667 0.266667 0
130 1 0.3 0.3 0.0333333
579 1 0.266667 0.266667 0.0666667
102 1 0.366667 0.233333 0.0333333
131 1 0.333333 0.266667 0
132 1 0.366667 0.3 0.0333333
581 1 0.333333 0.266667 0.0666667
104 1 0.433333 0.233333 0.0333333
133 1 0.4 0.266667 0
134 1 0.433333 0.3 0.0333333
583 1 0.4 0.266667 0.0666667
106 1 0.5 0.233333 0.0333333
135 1 0.466667 0.266667 0
136 1 0.5 0.3 0.0333333
137 1 0.533333 0.266667 0
585 1 0.466667 0.266667 0.0666667
587 1 0.533333 0.266667 0.0666667
108 1 0.566667 0.233333 0.0333333
138 1 0.566667 0.3 0.0333333
139 1 0.6 0.266667 0
589 1 0.6 0.266667 0.0666667
110 1 0.633333 0.233333 0.0333333
140 1 0.633333 0.3 0.0333333
141 1 0.666667 0.266667 0
591 1 0.666667 0.266667 0.0666667
112 1 0.7 0.233333 0.0333333
114 1 0.766667 0.233333 0.0333333
142 1 0.7 0.3 0.0333333
143 1 0.733333 0.266667 0
144 1 0.766667 0.3 0.0333333
593 1 0.733333 0.266667 0.0666667
116 1 0.833333 0.233333 0.0333333
145 1 0.8 0.266667 0
146 1 0.833333 0.3 0.0333333
595 1 0.8 0.266667 0.0666667
118 1 0.9 0.233333 0.0333333
147 1 0.866667 0.266667 0
148 1 0.9 0.3 0.0333333
597 1 0.866667 0.266667 0.0666667
120 1 0.966667 0.233333 0.0333333
149 1 0.933333 0.266667 0
150 1 0.966667 0.3 0.0333333
599 1 0.933333 0.266667 0.0666667
151 1 0 0.333333 0
152 1 0.0333333 0.366667 0.0333333
153 1 0.0666667 0.333333 0
601 1 0 0.333333 0.0666667
603 1 0.0666667 0.333333 0.0666667
154 1 0.1 0.366667 0.0333333
155 1 0.133333 0.333333 0
605 1 0.133333 0.333333 0.0666667
156 1 0.166667 0.366667 0.0333333
157 1 0.2 0.333333 0
607 1 0.2 0.333333 0.0666667
158 1 0.233333 0.366667 0.0333333
159 1 0.266667 0.333333 0
160 1 0.3 0.366667 0.0333333
609 1 0.266667 0.333333 0.0666667
161 1 0.333333 0.333333 0
162 1 0.366667 0.366667 0.0333333
611 1 0.333333 0.333333 0.0666667
163 1 0.4 0.333333 0
164 1 0.433333 0.366667 0.0333333
613 1 0.4 0.333333 0.0666667
165 1 0.466667 0.333333 0
166 1 0.5 0.366667 0.0333333
167 1 0.533333 0.333333 0
615 1 0.466667 0.333333 0.0666667
617 1 0.533333 0.333333 0.0666667
168 1 0.566667 0.366667 0.0333333
169 1 0.6 0.333333 0
619 1 0.6 0.333333 0.0666667
170 1 0.633333 0.366667 0.0333333
171 1 0.666667 0.333333 0
621 1 0.666667 0.333333 0.0666667
172 1 0.7 0.366667 0.0333333
173 1 0.733333 0.333333 0
174 1 0.766667 0.366667 0.0333333
623 1 0.733333 0.333333 0.0666667
175 1 0.8 0.333333 0
176 1 0.833333 0.366667 0.0333333
625 1 0.8 0.333333 0.0666667
177 1 0.866667 0.333333 0
178 1 0.9 0.366667 0.0333333
627 1 0.866667 0.333333 0.0666667
179 1 0.933333 0.333333 0
180 1 0.966667 0.366667 0.0333333
629 1 0.933333 0.333333 0.0666667
181 1 0 0.4 0
182 1 0.0333333 0.433333 0.0333333
183 1 0.0666667 0.4 0
631 1 0 0.4 0.0666667
633 1 0.0666667 0.4 0.0666667
184 1 0.1 0.433333 0.0333333
185 1 0.133333 0.4 0
635 1 0.133333 0.4 0.0666667
186 1 0.166667 0.433333 0.0333333
187 1 0.2 0.4 0
637 1 0.2 0.4 0.0666667
188 1 0.233333 0.433333 0.0333333
189 1 0.266667 0.4 0
190 1 0.3 0.433333 0.0333333
639 1 0.266667 0.4 0.0666667
191 1 0.333333 0.4 0
192 1 0.366667 0.433333 0.0333333
641 1 0.333333 0.4 0.0666667
193 1 0.4 0.4 0
194 1 0.433333 0.433333 0.0333333
643 1 0.4 0.4 0.0666667
195 1 0.466667 0.4 0
196 1 0.5 0.433333 0.0333333
197 1 0.533333 0.4 0
645 1 0.466667 0.4 0.0666667
647 1 0.533333 0.4 0.0666667
198 1 0.566667 0.433333 0.0333333
199 1 0.6 0.4 0
649 1 0.6 0.4 0.0666667
200 1 0.633333 0.433333 0.0333333
201 1 0.666667 0.4 0
651 1 0.666667 0.4 0.0666667
202 1 0.7 0.433333 0.0333333
203 1 0.733333 0.4 0
204 1 0.766667 0.433333 0.0333333
653 1 0.733333 0.4 0.0666667
205 1 0.8 0.4 0
206 1 0.833333 0.433333 0.0333333
655 1 0.8 0.4 0.0666667
207 1 0.866667 0.4 0
208 1 0.9 0.433333 0.0333333
657 1 0.866667 0.4 0.0666667
209 1 0.933333 0.4 0
210 1 0.966667 0.433333 0.0333333
659 1 0.933333 0.4 0.0666667
211 1 0 0.466667 0
212 1 0.0333333 0.5 0.0333333
213 1 0.0666667 0.466667 0
241 1 0 0.533333 0
243 1 0.0666667 0.533333 0
661 1 0 0.466667 0.0666667
663 1 0.0666667 0.466667 0.0666667
691 1 0 0.533333 0.0666667
693 1 0.0666667 0.533333 0.0666667
214 1 0.1 0.5 0.0333333
215 1 0.133333 0.466667 0
245 1 0.133333 0.533333 0
665 1 0.133333 0.466667 0.0666667
695 1 0.133333 0.533333 0.0666667
216 1 0.166667 0.5 0.0333333
217 1 0.2 0.466667 0
247 1 0.2 0.533333 0
667 1 0.2 0.466667 0.0666667
697 1 0.2 0.533333 0.0666667
218 1 0.233333 0.5 0.0333333
219 1 0.266667 0.466667 0
220 1 0.3 0.5 0.0333333
249 1 0.266667 0.533333 0
669 1 0.266667 0.466667 0.0666667
699 1 0.266667 0.533333 0.0666667
221 1 0.333333 0.466667 0
222 1 0.366667 0.5 0.0333333
251 1 0.333333 0.533333 0
671 1 0.333333 0.466667 0.0666667
701 1 0.333333 0.533333 0.0666667
223 1 0.4 0.466667 0
224 1 0.433333 0.5 0.0333333
253 1 0.4 0.533333 0
673 1 0.4 0.466667 0.0666667
703 1 0.4 0.533333 0.0666667
225 1 0.466667 0.466667 0
226 1 0.5 0.5 0.0333333
227 1 0.533333 0.466667 0
255 1 0.466667 0.533333 0
257 1 0.533333 0.533333 0
675 1 0.466667 0.466667 0.0666667
677 1 0.533333 0.466667 0.0666667
705 1 0.466667 0.533333 0.0666667
707 1 0.533333 0.533333 0.0666667
228 1 0.566667 0.5 0.0333333
229 1 0.6 0.466667 0
259 1 0.6 0.533333 0
679 1 0.6 0.466667 0.0666667
709 1 0.6 0.533333 0.0666667
230 1 0.633333 0.5 0.0333333
231 1 0.666667 0.466667 0
261 1 0.666667 0.533333 0
681 1 0.666667 0.466667 0.0666667
711 1 0.666667 0.533333 0.0666667
232 1 0.7 0.5 0.0333333
233 1 0.733333 0.466667 0
234 1 0.766667 0.5 0.0333333
263 1 0.733333 0.533333 0
683 1 0.733333 0.466667 0.0666667
713 1 0.733333 0.533333 0.0666667
235 1 0.8 0.466667 0
236 1 0.833333 0.5 0.0333333
265 1 0.8 0.533333 0
685 1 0.8 0.466667 0.0666667
715 1 0.8 0.533333 0.0666667
237 1 0.866667 0.466667 0
238 1 0.9 0.5 0.0333333
267 1 0.866667 0.533333 0
687 1 0.866667 0.466667 0.0666667
717 1 0.866667 0.533333 0.0666667
239 1 0.933333 0.466667 0
240 1 0.966667 0.5 0.0333333
269 1 0.933333 0.533333 0
689 1 0.933333 0.466667 0.0666667
719 1 0.933333 0.533333 0.0666667
242 1 0.0333333 0.566667 0.0333333
271 1 0 0.6 0
273 1 0.0666667 0.6 0
721 1 0 0.6 0.0666667
723 1 0.0666667 0.6 0.0666667
244 1 0.1 0.566667 0.0333333
275 1 0.133333 0.6 0
725 1 0.133333 0.6 0.0666667
246 1 0.166667 0.566667 0.0333333
277 1 0.2 0.6 0
727 1 0.2 0.6 0.0666667
248 1 0.233333 0.566667 0.0333333
250 1 0.3 0.566667 0.0333333
279 1 0.266667 0.6 0
729 1 0.266667 0.6 0.0666667
252 1 0.366667 0.566667 0.0333333
281 1 0.333333 0.6 0
731 1 0.333333 0.6 0.0666667
254 1 0.433333 0.566667 0.0333333
283 1 0.4 0.6 0
733 1 0.4 0.6 0.0666667
256 1 0.5 0.566667 0.0333333
285 1 0.466667 0.6 0
287 1 0.533333 0.6 0
735 1 0.466667 0.6 0.0666667
737 1 0.533333 0.6 0.0666667
258 1 0.566667 0.566667 0.0333333
289 1 0.6 0.6 0
739 1 0.6 0.6 0.0666667
260 1 0.633333 0.566667 0.0333333
291 1 0.666667 0.6 0
741 1 0.666667 0.6 0.0666667
262 1 0.7 0.566667 0.0333333
264 1 0.766667 0.566667 0.0333333
293 1 0.733333 0.6 0
743 1 0.733333 0.6 0.0666667
266 1 0.833333 0.566667 0.0333333
295 1 0.8 0.6 0
745 1 0.8 0.6 0.0666667
268 1 0.9 0.566667 0.0333333
297 1 0.866667 0.6 0
747 1 0.866667 0.6 0.0666667
270 1 0.966667 0.566667 0.0333333
299 1 0.933333 0.6 0
749 1 0.933333 0.6 0.0666667
272 1 0.0333333 0.633333 0.0333333
301 1 0 0.666667 0
303 1 0.0666667 0.666667 0
751 1 0 0.666667 0.0666667
753 1 0.0666667 0.666667 0.0666667
274 1 0.1 0.633333 0.0333333
305 1 0.133333 0.666667 0
755 1 0.133333 0.666667 0.0666667
276 1 0.166667 0.633333 0.0333333
307 1 0.2 0.666667 0
757 1 0.2 0.666667 0.0666667
278 1 0.233333 0.633333 0.0333333
280 1 0.3 0.633333 0.0333333
309 1 0.266667 0.666667 0
759 1 0.266667 0.666667 0.0666667
282 1 0.366667 0.633333 0.0333333
311 1 0.333333 0.666667 0
761 1 0.333333 0.666667 0.0666667
284 1 0.433333 0.633333 0.0333333
313 1 0.4 0.666667 0
763 1 0.4 0.666667 0.0666667
286 1 0.5 0.633333 0.0333333
315 1 0.466667 0.666667 0
317 1 0.533333 0.666667 0
765 1 0.466667 0.666667 0.0666667
767 1 0.533333 0.666667 0.0666667
288 1 0.566667 0.633333 0.0333333
319 1 0.6 0.666667 0
769 1 0.6 0.666667 0.0666667
290 1 0.633333 0.633333 0.0333333
321 1 0.666667 0.666667 0
771 1 0.666667 0.666667 0.0666667
292 1 0.7 0.633333 0.0333333
294 1 0.766667 0.633333 0.0333333
323 1 0.733333 0.666667 0
773 1 0.733333 0.666667 0.0666667
296 1 0.833333 0.633333 0.0333333
325 1 0.8 0.666667 0
775 1 0.8 0.666667 0.0666667
298 1 0.9 0.633333 0.0333333
327 1 0.866667 0.666667 0
777 1 0.866667 0.666667 0.0666667
300 1 0.966667 0.633333 0.0333333
329 1 0.933333 0.666667 0
779 1 0.933333 0.666667 0.0666667
302 1 0.0333333 0.7 0.0333333
331 1 0 0.733333 0
332 1 0.0333333 0.766667 0.0333333
333 1 0.0666667 0.733333 0
781 1 0 0.733333 0.0666667
783 1 0.0666667 0.733333 0.0666667
304 1 0.1 0.7 0.0333333
334 1 0.1 0.766667 0.0333333
335 1 0.133333 0.733333 0
785 1 0.133333 0.733333 0.0666667
306 1 0.166667 0.7 0.0333333
336 1 0.166667 0.766667 0.0333333
337 1 0.2 0.733333 0
787 1 0.2 0.733333 0.0666667
308 1 0.233333 0.7 0.0333333
310 1 0.3 0.7 0.0333333
338 1 0.233333 0.766667 0.0333333
339 1 0.266667 0.733333 0
340 1 0.3 0.766667 0.0333333
789 1 0.266667 0.733333 0.0666667
312 1 0.366667 0.7 0.0333333
341 1 0.333333 0.733333 0
342 1 0.366667 0.766667 0.0333333
791 1 0.333333 0.733333 0.0666667
314 1 0.433333 0.7 0.0333333
343 1 0.4 0.733333 0
344 1 0.433333 0.766667 0.0333333
793 1 0.4 0.733333 0.0666667
316 1 0.5 0.7 0.0333333
345 1 0.466667 0.733333 0
346 1 0.5 0.766667 0.0333333
347 1 0.533333 0.733333 0
795 1 0.466667 0.733333 0.0666667
797 1 0.533333 0.733333 0.0666667
318 1 0.566667 0.7 0.0333333
348 1 0.566667 0.766667 0.0333333
349 1 0.6 0.733333 0
799 1 0.6 0.733333 0.0666667
320 1 0.633333 0.7 0.0333333
350 1 0.633333 0.766667 0.0333333
351 1 0.666667 0.733333 0
801 1 0.666667 0.733333 0.0666667
322 1 0.7 0.7 0.0333333
324 1 0.766667 0.7 0.0333333
352 1 0.7 0.766667 0.0333333
353 1 0.733333 0.733333 0
354 1 0.766667 0.766667 0.0333333
803 1 0.733333 0.733333 0.0666667
326 1 0.833333 0.7 0.0333333
355 1 0.8 0.733333 0
356 1 0.833333 0.766667 0.0333333
805 1 0.8 0.733333 0.0666667
328 1 0.9 0.7 0.0333333
357 1 0.866667 0.733333 0
358 1 0.9 0.766667 0.0333333
807 1 0.866667 0.733333 0.0666667
330 1 0.966667 0.7 0.0333333
359 1 0.933333 0.733333 0
360 1 0.966667 0.766667 0.0333333
809 1 0.933333 0.733333 0.0666667
361 1 0 0.8 0
362 1 0.0333333 0.833333 0.0333333
363 1 0.0666667 0.8 0
811 1 0 0.8 0.0666667
813 1 0.0666667 0.8 0.0666667
364 1 0.1 0.833333 0.0333333
365 1 0.133333 0.8 0
815 1 0.133333 0.8 0.0666667
366 1 0.166667 0.833333 0.0333333
367 1 0.2 0.8 0
817 1 0.2 0.8 0.0666667
368 1 0.233333 0.833333 0.0333333
369 1 0.266667 0.8 0
370 1 0.3 0.833333 0.0333333
819 1 0.266667 0.8 0.0666667
371 1 0.333333 0.8 0
372 1 0.366667 0.833333 0.0333333
821 1 0.333333 0.8 0.0666667
373 1 0.4 0.8 0
374 1 0.433333 0.833333 0.0333333
823 1 0.4 0.8 0.0666667
375 1 0.466667 0.8 0
376 1 0.5 0.833333 0.0333333
377 1 0.533333 0.8 0
825 1 0.466667 0.8 0.0666667
827 1 0.533333 0.8 0.0666667
378 1 0.566667 0.833333 0.0333333
379 1 0.6 0.8 0
829 1 0.6 0.8 0.0666667
380 1 0.633333 0.833333 0.0333333
381 1 0.666667 0.8 0
831 1 0.666667 0.8 0.0666667
382 1 0.7 0.833333 0.0333333
383 1 0.733333 0.8 0
384 1 0.766667 0.833333 0.0333333
833 1 0.733333 0.8 0.0666667
385 1 0.8 0.8 0
386 1 0.833333 0.833333 0.0333333
835 1 0.8 0.8 0.0666667
387 1 0.866667 0.8 0
388 1 0.9 0.833333 0.0333333
837 1 0.866667 0.8 0.0666667
389 1 0.933333 0.8 0
390 1 0.966667 0.833333 0.0333333
839 1 0.933333 0.8 0.0666667
391 1 0 0.866667 0
392 1 0.0333333 0.9 0.0333333
393 1 0.0666667 0.866667 0
841 1 0 0.866667 0.0666667
843 1 0.0666667 0.866667 0.0666667
394 1 0.1 0.9 0.0333333
395 1 0.133333 0.866667 0
845 1 0.133333 0.866667 0.0666667
396 1 0.166667 0.9 0.0333333
397 1 0.2 0.866667 0
847 1 0.2 0.866667 0.0666667
398 1 0.233333 0.9 0.0333333
399 1 0.266667 0.866667 0
400 1 0.3 0.9 0.0333333
849 1 0.266667 0.866667 0.0666667
401 1 0.333333 0.866667 0
402 1 0.366667 0.9 0.0333333
851 1 0.333333 0.866667 0.0666667
403 1 0.4 0.866667 0
404 1 0.433333 0.9 0.0333333
853 1 0.4 0.866667 0.0666667
405 1 0.466667 0.866667 0
406 1 0.5 0.9 0.0333333
407 1 0.533333 0.866667 0
855 1 0.466667 0.866667 0.0666667
857 1 0.533333 0.866667 0.0666667
408 1 0.566667 0.9 0.0333333
409 1 0.6 0.866667 0
859 1 0.6 0.866667 0.0666667
410 1 0.633333 0.9 0.0333333
411 1 0.666667 0.866667 0
861 1 0.666667 0.866667 0.0666667
412 1 0.7 0.9 0.0333333
413 1 0.733333 0.866667 0
414 1 0.766667 0.9 0.0333333
863 1 0.733333 0.866667 0.0666667
415 1 0.8 0.866667 0
416 1 0.833333 0.9 0.0333333
865 1 0.8 0.866667 0.0666667
417 1 0.866667 0.866667 0
418 1 0.9 0.9 0.0333333
867 1 0.866667 0.866667 0.0666667
419 1 0.933333 0.866667 0
420 1 0.966667 0.9 0.0333333
869 1 0.933333 0.866667 0.0666667
421 1 0 0.933333 0
422 1 0.0333333 0.966667 0.0333333
423 1 0.0666667 0.933333 0
871 1 0 0.933333 0.0666667
873 1 0.0666667 0.933333 0.0666667
424 1 0.1 0.966667 0.0333333
425 1 0.133333 0.933333 0
875 1 0.133333 0.933333 0.0666667
426 1 0.166667 0.966667 0.0333333
427 1 0.2 0.933333 0
877 1 0.2 0.933333 0.0666667
428 1 0.233333 0.966667 0.0333333
429 1 0.266667 0.933333 0
430 1 0.3 0.966667 0.0333333
879 1 0.266667 0.933333 0.0666667
431 1 0.333333 0.933333 0
432 1 0.366667 0.966667 0.0333333
881 1 0.333333 0.933333 0.0666667
433 1 0.4 0.933333 0
434 1 0.433333 0.966667 0.0333333
883 1 0.4 0.933333 0.0666667
435 1 0.466667 0.933333 0
436 1 0.5 0.966667 0.0333333
437 1 0.533333 0.933333 0
885 1 0.466667 0.933333 0.0666667
887 1 0.533333 0.933333 0.0666667
438 1 0.566667 0.966667 0.0333333
439 1 0.6 0.933333 0
889 1 0.6 0.933333 0.0666667
440 1 0.633333 0.966667 0.0333333
441 1 0.666667 0.933333 0
891 1 0.666667 0.933333 0.0666667
442 1 0.7 0.966667 0.0333333
443 1 0.733333 0.933333 0
444 1 0.766667 0.966667 0.0333333
893 1 0.733333 0.933333 0.0666667
445 1 0.8 0.933333 0
446 1 0.833333 0.966667 0.0333333
895 1 0.8 0.933333 0.0666667
447 1 0.866667 0.933333 0
448 1 0.9 0.966667 0.0333333
897 1 0.866667 0.933333 0.0666667
449 1 0.933333 0.933333 0
450 1 0.966667 0.966667 0.0333333
899 1 0.933333 0.933333 0.0666667
452 1 0.0333333 0.0333333 0.1
901 1 0 0 0.133333
903 1 0.0666667 0 0.133333
931 1 0 0.0666667 0.133333
933 1 0.0666667 0.0666667 0.133333
454 1 0.1 0.0333333 0.1
905 1 0.133333 0 0.133333
935 1 0.133333 0.0666667 0.133333
456 1 0.166667 0.0333333 0.1
907 1 0.2 0 0.133333
937 1 0.2 0.0666667 0.133333
458 1 0.233333 0.0333333 0.1
460 1 0.3 0.0333333 0.1
909 1 0.266667 0 0.133333
939 1 0.266667 0.0666667 0.133333
462 1 0.366667 0.0333333 0.1
911 1 0.333333 0 0.133333
941 1 0.333333 0.0666667 0.133333
464 1 0.433333 0.0333333 0.1
913 1 0.4 0 0.133333
943 1 0.4 0.0666667 0.133333
466 1 0.5 0.0333333 0.1
915 1 0.466667 0 0.133333
917 1 0.533333 0 0.133333
945 1 0.466667 0.0666667 0.133333
947 1 0.533333 0.0666667 0.133333
468 1 0.566667 0.0333333 0.1
919 1 0.6 0 0.133333
949 1 0.6 0.0666667 0.133333
470 1 0.633333 0.0333333 0.1
921 1 0.666667 0 0.133333
951 1 0.666667 0.0666667 0.133333
472 1 0.7 0.0333333 0.1
474 1 0.766667 0.0333333 0.1
923 1 0.733333 0 0.133333
953 1 0.733333 0.0666667 0.133333
476 1 0.833333 0.0333333 0.1
925 1 0.8 0 0.133333
955 1 0.8 0.0666667 0.133333
478 1 0.9 0.0333333 0.1
927 1 0.866667 0 0.133333
957 1 0.866667 0.0666667 0.133333
480 1 0.966667 0.0333333 0.1
929 1 0.933333 0 0.133333
959 1 0.933333 0.0666667 0.133333
482 1 0.0333333 0.1 0.1
961 1 0 0.133333 0.133333
963 1 0.0666667 0.133333 0.133333
484 1 0.1 0.1 0.1
965 1 0.133333 0.133333 0.133333
486 1 0.166667 0.1 0.1
967 1 0.2 0.133333 0.133333
488 1 0.233333 0.1 0.1
490 1 0.3 0.1 0.1
969 1 0.266667 0.133333 0.133333
492 1 0.366667 0.1 0.1
971 1 0.333333 0.133333 0.133333
494 1 0.433333 0.1 0.1
973 1 0.4 0.133333 0.133333
496 1 0.5 0.1 0.1
975 1 0.466667 0.133333 0.133333
977 1 0.533333 0.133333 0.133333
498 1 0.566667 0.1 0.1
979 1 0.6 0.133333 0.133333
500 1 0.633333 0.1 0.1
981 1 0.666667 0.133333 0.133333
502 1 0.7 0.1 0.1
504 1 0.766667 0.1 0.1
983 1 0.733333 0.133333 0.133333
506 1 0.833333 0.1 0.1
985 1 0.8 0.133333 0.133333
508 1 0.9 0.1 0.1
987 1 0.866667 0.133333 0.133333
510 1 0.966667 0.1 0.1
989 1 0.933333 0.133333 0.133333
512 1 0.0333333 0.166667 0.1
991 1 0 0.2 0.133333
993 1 0.0666667 0.2 0.133333
514 1 0.1 0.166667 0.1
995 1 0.133333 0.2 0.133333
516 1 0.166667 0.166667 0.1
997 1 0.2 0.2 0.133333
518 1 0.233333 0.166667 0.1
520 1 0.3 0.166667 0.1
999 1 0.266667 0.2 0.133333
522 1 0.366667 0.166667 0.1
1001 1 0.333333 0.2 0.133333
524 1 0.433333 0.166667 0.1
1003 1 0.4 0.2 0.133333
526 1 0.5 0.166667 0.1
1005 1 0.466667 0.2 0.133333
1007 1 0.533333 0.2 0.133333
528 1 0.566667 0.166667 0.1
1009 1 0.6 0.2 0.133333
530 1 0.633333 0.166667 0.1
1011 1 0.666667 0.2 0.133333
532 1 0.7 0.166667 0.1
534 1 0.766667 0.166667 0.1
1013 1 0.733333 0.2 0.133333
536 1 0.833333 0.166667 0.1
1015 1 0.8 0.2 0.133333
538 1 0.9 0.166667 0.1
1017 1 0.866667 0.2 0.133333
540 1 0.966667 0.166667 0.1
1019 1 0.933333 0.2 0.133333
542 1 0.0333333 0.233333 0.1
572 1 0.0333333 0.3 0.1
1021 1 0 0.266667 0.133333
1023 1 0.0666667 0.266667 0.133333
544 1 0.1 0.233333 0.1
574 1 0.1 0.3 0.1
1025 1 0.133333 0.266667 0.133333
546 1 0.166667 0.233333 0.1
576 1 0.166667 0.3 0.1
1027 1 0.2 0.266667 0.133333
548 1 0.233333 0.233333 0.1
550 1 0.3 0.233333 0.1
578 1 0.233333 0.3 0.1
580 1 0.3 0.3 0.1
1029 1 0.266667 0.266667 0.133333
552 1 0.366667 0.233333 0.1
582 1 0.366667 0.3 0.1
1031 1 0.333333 0.266667 0.133333
554 1 0.433333 0.233333 0.1
584 1 0.433333 0.3 0.1
1033 1 0.4 0.266667 0.133333
556 1 0.5 0.233333 0.1
586 1 0.5 0.3 0.1
1035 1 0.466667 0.266667 0.133333
1037 1 0.533333 0.266667 0.133333
558 1 0.566667 0.233333 0.1
588 1 0.566667 0.3 0.1
1039 1 0.6 0.266667 0.133333
560 1 0.633333 0.233333 0.1
590 1 0.633333 0.3 0.1
1041 1 0.666667 0.266667 0.133333
562 1 0.7 0.233333 0.1
564 1 0.766667 0.233333 0.1
592 1 0.7 0.3 0.1
594 1 0.766667 0.3 0.1
1043 1 0.733333 0.266667 0.133333
566 1 0.833333 0.233333 0.1
596 1 0.833333 0.3 0.1
1045 1 0.8 0.266667 0.133333
568 1 0.9 0.233333 0.1
598 1 0.9 0.3 0.1
1047 1 0.866667 0.266667 0.133333
570 1 0.966667 0.233333 0.1
600 1 0.966667 0.3 0.1
1049 1 0.933333 0.266667 0.133333
602 1 0.0333333 0.366667 0.1
1051 1 0 0.333333 0.133333
1053 1 0.0666667 0.333333 0.133333
604 1 0.1 0.366667 0.1
1055 1 0.133333 0.333333 0.133333
606 1 0.166667 0.366667 0.1
1057 1 0.2 0.333333 0.133333
608 1 0.233333 0.366667 0.1
610 1 0.3 0.366667 0.1
1059 1 0.266667 0.333333 0.133333
612 1 0.366667 0.366667 0.1
1061 1 0.333333 0.333333 0.133333
614 1 0.433333 0.366667 0.1
1063 1 0.4 0.333333 0.133333
616 1 0.5 0.366667 0.1
1065 1 0.466667 0.333333 0.133333
1067 1 0.533333 0.333333 0.133333
618 1 0.566667 0.366667 0.1
1069 1 0.6 0.333333 0.133333
620 1 0.633333 0.366667 0.1
1071 1 0.666667 0.333333 0.133333
622 1 0.7 0.366667 0.1
624 1 0.766667 0.366667 0.1
1073 1 0.733333 0.333333 0.133333
626 1 0.833333 0.366667 0.1
1075 1 0.8 0.333333 0.133333
628 1 0.9 0.366667 0.1
1077 1 0.866667 0.333333 0.133333
630 1 0.966667 0.366667 0.1
1079 1 0.933333 0.333333 0.133333
632 1 0.0333333 0.433333 0.1
1081 1 0 0.4 0.133333
1083 1 0.0666667 0.4 0.133333
634 1 0.1 0.433333 0.1
1085 1 0.133333 0.4 0.133333
636 1 0.166667 0.433333 0.1
1087 1 0.2 0.4 0.133333
638 1 0.233333 0.433333 0.1
640 1 0.3 0.433333 0.1
1089 1 0.266667 0.4 0.133333
642 1 0.366667 0.433333 0.1
1091 1 0.333333 0.4 0.133333
644 1 0.433333 0.433333 0.1
1093 1 0.4 0.4 0.133333
646 1 0.5 0.433333 0.1
1095 1 0.466667 0.4 0.133333
1097 1 0.533333 0.4 0.133333
648 1 0.566667 0.433333 0.1
1099 1 0.6 0.4 0.133333
650 1 0.633333 0.433333 0.1
1101 1 0.666667 0.4 0.133333
652 1 0.7 0.433333 0.1
654 1 0.766667 0.433333 0.1
1103 1 0.733333 0.4 0.133333
656 1 0.833333 0.433333 0.1
1105 1 0.8 0.4 0.133333
658 1 0.9 0.433333 0.1
1107 1 0.866667 0.4 0.133333
660 1 0.966667 0.433333 0.1
1109 1 0.933333 0.4 0.133333
662 1 0.0333333 0.5 0.1
1111 1 0 0.466667 0.133333
1113 1 0.0666667 0.466667 0.133333
1141 1 0 0.533333 0.133333
1143 1 0.0666667 0.533333 0.133333
664 1 0.1 0.5 0.1
1115 1 0.133333 0.466667 0.133333
1145 1 0.133333 0.533333 0.133333
666 1 0.166667 0.5 0.1
1117 1 0.2 0.466667 0.133333
1147 1 0.2 0.533333 0.133333
668 1 0.233333 0.5 0.1
670 1 0.3 0.5 0.1
1119 1 0.266667 0.466667 0.133333
1149 1 0.266667 0.533333 0.133333
672 1 0.366667 0.5 0.1
1121 1 0.333333 0.466667 0.133333
1151 1 0.333333 0.533333 0.133333
674 1 0.433333 0.5 0.1
1123 1 0.4 0.466667 0.133333
1153 1 0.4 0.533333 0.133333
676 1 0.5 0.5 0.1
1125 1 0.466667 0.466667 0.133333
1127 1 0.533333 0.466667 0.133333
1155 1 0.466667 0.533333 0.133333
1157 1 0.533333 0.533333 0.133333
678 1 0.566667 0.5 0.1
1129 1 0.6 0.466667 0.133333
1159 1 0.6 0.533333 0.133333
680 1 0.633333 0.5 0.1
1131 1 0.666667 0.466667 0.133333
1161 1 0.666667 0.533333 0.133333
682 1 0.7 0.5 0.1
684 1 0.766667 0.5 0.1
1133 1 0.733333 0.466667 0.133333
1163 1 0.733333 0.533333 0.133333
686 1 0.833333 0.5 0.1
1135 1 0.8 0.466667 0.133333
1165 1 0.8 0.533333 0.133333
688 1 0.9 0.5 0.1
1137 1 0.866667 0.466667 0.133333
1167 1 0.866667 0.533333 0.133333
690 1 0.966667 0.5 0.1
1139 1 0.933333 0.466667 0.133333
1169 1 0.933333 0.533333 0.133333
692 1 0.0333333 0.566667 0.1
1171 1 0 0.6 0.133333
1173 1 0.0666667 0.6 0.133333
694 1 0.1 0.566667 0.1
1175 1 0.133333 0.6 0.133333
696 1 0.166667 0.566667 0.1
1177 1 0.2 0.6 0.133333
698 1 0.233333 0.566667 0.1
700 1 0.3 0.566667 0.1
1179 1 0.266667 0.6 0.133333
702 1 0.366667 0.566667 0.1
1181 1 0.333333 0.6 0.133333
704 1 0.433333 0.566667 0.1
1183 1 0.4 0.6 0.133333
706 1 0.5 0.566667 0.1
1185 1 0.466667 0.6 0.133333
1187 1 0.533333 0.6 0.133333
708 1 0.566667 0.566667 0.1
1189 1 0.6 0.6 0.133333
710 1 0.633333 0.566667 0.1
1191 1 0.666667 0.6 0.133333
712 1 0.7 0.566667 0.1
714 1 0.766667 0.566667 0.1
1193 1 0.733333 0.6 0.133333
716 1 0.833333 0.566667 0.1
1195 1 0.8 0.6 0.133333
718 1 0.9 0.566667 0.1
1197 1 0.866667 0.6 0.133333
720 1 0.966667 0.566667 0.1
1199 1 0.933333 0.6 0.133333
722 1 0.0333333 0.633333 0.1
1201 1 0 0.666667 0.133333
1203 1 0.0666667 0.666667 0.133333
724 1 0.1 0.633333 0.1
1205 1 0.133333 0.666667 0.133333
726 1 0.166667 0.633333 0.1
1207 1 0.2 0.666667 0.133333
728 1 0.233333 0.633333 0.1
730 1 0.3 0.633333 0.1
1209 1 0.266667 0.666667 0.133333
732 1 0.366667 0.633333 0.1
1211 1 0.333333 0.666667 0.133333
734 1 0.433333 0.633333 0.1
1213 1 0.4 0.666667 0.133333
736 1 0.5 0.633333 0.1
1215 1 0.466667 0.666667 0.133333
1217 1 0.533333 0.666667 0.133333
738 1 0.566667 0.633333 0.1
1219 1 0.6 0.666667 0.133333
740 1 0.633333 0.633333 0.1
1221 1 0.666667 0.666667 0.133333
742 1 0.7 0.633333 0.1
744 1 0.766667 0.633333 0.1
1223 1 0.733333 0.666667 0.133333
746 1 0.833333 0.633333 0.1
1225 1 0.8 0.666667 0.133333
748 1 0.9 0.633333 0.1
1227 1 0.866667 0.666667 0.133333
750 1 0.966667 0.633333 0.1
1229 1 0.933333 0.666667 0.133333
752 1 0.0333333 0.7 0.1
782 1 0.0333333 0.766667 0.1
1231 1 0 0.733333 0.133333
1233 1 0.0666667 0.733333 0.133333
754 1 0.1 0.7 0.1
784 1 0.1 0.766667 0.1
1235 1 0.133333 0.733333 0.133333
756 1 0.166667 0.7 0.1
786 1 0.166667 0.766667 0.1
1237 1 0.2 0.733333 0.133333
758 1 0.233333 0.7 0.1
760 1 0.3 0.7 0.1
788 1 0.233333 0.766667 0.1
790 1 0.3 0.766667 0.1
1239 1 0.266667 0.733333 0.133333
762 1 0.366667 0.7 0.1
792 1 0.366667 0.766667 0.1
1241 1 0.333333 0.733333 0.133333
764 1 0.433333 0.7 0.1
794 1 0.433333 0.766667 0.1
1243 1 0.4 0.733333 0.133333
766 1 0.5 0.7 0.1
796 1 0.5 0.766667 0.1
1245 1 0.466667 0.733333 0.133333
1247 1 0.533333 0.733333 0.133333
768 1 0.566667 0.7 0.1
798 1 0.566667 0.766667 0.1
1249 1 0.6 0.733333 0.133333
770 1 0.633333 0.7 0.1
800 1 0.633333 0.766667 0.1
1251 1 0.666667 0.733333 0.133333
772 1 0.7 0.7 0.1
774 1 0.766667 0.7 0.1
802 1 0.7 0.766667 0.1
804 1 0.766667 0.766667 0.1
1253 1 0.733333 0.733333 0.133333
776 1 0.833333 0.7 0.1
806 1 0.833333 0.766667 0.1
1255 1 0.8 0.733333 0.133333
778 1 0.9 0.7 0.1
808 1 0.9 0.766667 0.1
1257 1 0.866667 0.733333 0.133333
780 1 0.966667 0.7 0.1
810 1 0.966667 0.766667 0.1
1259 1 0.933333 0.733333 0.133333
812 1 0.0333333 0.833333 0.1
1261 1 0 0.8 0.133333
1263 1 0.0666667 0.8 0.133333
814 1 0.1 0.833333 0.1
1265 1 0.133333 0.8 0.133333
816 1 0.166667 0.833333 0.1
1267 1 0.2 0.8 0.133333
818 1 0.233333 0.833333 0.1
820 1 0.3 0.833333 0.1
1269 1 0.266667 0.8 0.133333
822 1 0.366667 0.833333 0.1
1271 1 0.333333 0.8 0.133333
824 1 0.433333 0.833333 0.1
1273 1 0.4 0.8 0.133333
826 1 0.5 0.833333 0.1
1275 1 0.466667 0.8 0.133333
1277 1 0.533333 0.8 0.133333
828 1 0.566667 0.833333 0.1
1279 1 0.6 0.8 0.133333
830 1 0.633333 0.833333 0.1
1281 1 0.666667 0.8 0.133333
832 1 0.7 0.833333 0.1
834 1 0.766667 0.833333 0.1
1283 1 0.733333 0.8 0.133333
836 1 0.833333 0.833333 0.1
1285 1 0.8 0.8 0.133333
838 1 0.9 0.833333 0.1
1287 1 0.866667 0.8 0.133333
840 1 0.966667 0.833333 0.1
1289 1 0.933333 0.8 0.133333
842 1 0.0333333 0.9 0.1
1291 1 0 0.866667 0.133333
1293 1 0.0666667 0.866667 0.133333
844 1 0.1 0.9 0.1
1295 1 0.133333 0.866667 0.133333
846 1 0.166667 0.9 0.1
1297 1 0.2 0.866667 0.133333
848 1 0.233333 0.9 0.1
850 1 0.3 0.9 0.1
1299 1 0.266667 0.866667 0.133333