ITEM: TIMESTEP
0
ITEM: NUMBER OF ATOMS
2006
ITEM: BOX BOUNDS pp pp pp
0.0000000000000000e+00 3.5539999999999999e+01
0.0000000000000000e+00 3.5539999999999999e+01
0.0000000000000000e+00 3.5539999999999999e+01
ITEM: ATOMS id type xs ys zs
223 1 0.1 0.1 0.1
2006 3 0.0488642 0.0102019 0.0125216
4 1 0.15 0.05 0.05
5 1 0.2 0 0
25 1 0.2 0.1 0
205 1 0.2 0 0.1
225 1 0.2 0.1 0.1
6 1 0.25 0.05 0.05
7 1 0.3 0 0
8 1 0.35 0.05 0.05
27 1 0.3 0.1 0
207 1 0.3 0 0.1
227 1 0.3 0.1 0.1
2002 1 0.325761 0.0680123 0.0834771
9 1 0.4 0 0
10 1 0.45 0.05 0.05
29 1 0.4 0.1 0
209 1 0.4 0 0.1
229 1 0.4 0.1 0.1
11 1 0.5 0 0
12 1 0.55 0.05 0.05
13 1 0.6 0 0
31 1 0.5 0.1 0
33 1 0.6 0.1 0
211 1 0.5 0 0.1
213 1 0.6 0 0.1
231 1 0.5 0.1 0.1
233 1 0.6 0.1 0.1
14 1 0.65 0.05 0.05
15 1 0.7 0 0
35 1 0.7 0.1 0
215 1 0.7 0 0.1
235 1 0.7 0.1 0.1
16 1 0.75 0.05 0.05
17 1 0.8 0 0
18 1 0.85 0.05 0.05
37 1 0.8 0.1 0
217 1 0.8 0 0.1
237 1 0.8 0.1 0.1
19 1 0.9 0 0
20 1 0.95 0.05 0.05
39 1 0.9 0.1 0
219 1 0.9 0 0.1
239 1 0.9 0.1 0.1
22 1 0.05 0.15 0.05
41 1 0 0.2 0
43 1 0.1 0.2 0
241 1 0 0.2 0.1
243 1 0.1 0.2 0.1
24 1 0.15 0.15 0.05
45 1 0.2 0.2 0
245 1 0.2 0.2 0.1
26 1 0.25 0.15 0.05
28 1 0.35 0.15 0.05
47 1 0.3 0.2 0
247 1 0.3 0.2 0.1
30 1 0.45 0.15 0.05
49 1 0.4 0.2 0
249 1 0.4 0.2 0.1
32 1 0.55 0.15 0.05
51 1 0.5 0.2 0
53 1 0.6 0.2 0
251 1 0.5 0.2 0.1
253 1 0.6 0.2 0.1
34 1 0.65 0.15 0.05
55 1 0.7 0.2 0
255 1 0.7 0.2 0.1
36 1 0.75 0.15 0.05
38 1 0.85 0.15 0.05
57 1 0.8 0.2 0
257 1 0.8 0.2 0.1
40 1 0.95 0.15 0.05
59 1 0.9 0.2 0
259 1 0.9 0.2 0.1
42 1 0.05 0.25 0.05
61 1 0 0.3 0
62 1 0.05 0.35 0.05
63 1 0.1 0.3 0
261 1 0 0.3 0.1
263 1 0.1 0.3 0.1
44 1 0.15 0.25 0.05
64 1 0.15 0.35 0.05
65 1 0.2 0.3 0
265 1 0.2 0.3 0.1
46 1 0.25 0.25 0.05
48 1 0.35 0.25 0.05
66 1 0.25 0.35 0.05
67 1 0.3 0.3 0
68 1 0.35 0.35 0.05
267 1 0.3 0.3 0.1
50 1 0.45 0.25 0.05
69 1 0.4 0.3 0
70 1 0.45 0.35 0.05
269 1 0.4 0.3 0.1
52 1 0.55 0.25 0.05
71 1 0.5 0.3 0
72 1 0.55 0.35 0.05
73 1 0.6 0.3 0
271 1 0.5 0.3 0.1
273 1 0.6 0.3 0.1
54 1 0.65 0.25 0.05
74 1 0.65 0.35 0.05
75 1 0.7 0.3 0
275 1 0.7 0.3 0.1
56 1 0.75 0.25 0.05
58 1 0.85 0.25 0.05
76 1 0.75 0.35 0.05
77 1 0.8 0.3 0
78 1 0.85 0.35 0.05
277 1 0.8 0.3 0.1
60 1 0.95 0.25 0.05
79 1 0.9 0.3 0
80 1 0.95 0.35 0.05
279 1 0.9 0.3 0.1
81 1 0 0.4 0
82 1 0.05 0.45 0.05
83 1 0.1 0.4 0
281 1 0 0.4 0.1
283 1 0.1 0.4 0.1
84 1 0.15 0.45 0.05
85 1 0.2 0.4 0
285 1 0.2 0.4 0.1
86 1 0.25 0.45 0.05
87 1 0.3 0.4 0
88 1 0.35 0.45 0.05
287 1 0.3 0.4 0.1
89 1 0.4 0.4 0
90 1 0.45 0.45 0.05
289 1 0.4 0.4 0.1
91 1 0.5 0.4 0
92 1 0.55 0.45 0.05
93 1 0.6 0.4 0
291 1 0.5 0.4 0.1
293 1 0.6 0.4 0.1
94 1 0.65 0.45 0.05
95 1 0.7 0.4 0
295 1 0.7 0.4 0.1
96 1 0.75 0.45 0.05
97 1 0.8 0.4 0
98 1 0.85 0.45 0.05
297 1 0.8 0.4 0.1
99 1 0.9 0.4 0
100 1 0.95 0.45 0.05
299 1 0.9 0.4 0.1
101 1 0 0.5 0
102 1 0.05 0.55 0.05
103 1 0.1 0.5 0
121 1 0 0.6 0
123 1 0.1 0.6 0
301 1 0 0.5 0.1
303 1 0.1 0.5 0.1
321 1 0 0.6 0.1
323 1 0.1 0.6 0.1
104 1 0.15 0.55 0.05
105 1 0.2 0.5 0
125 1 0.2 0.6 0
305 1 0.2 0.5 0.1
325 1 0.2 0.6 0.1
106 1 0.25 0.55 0.05
107 1 0.3 0.5 0
108 1 0.35 0.55 0.05
127 1 0.3 0.6 0
307 1 0.3 0.5 0.1
327 1 0.3 0.6 0.1
109 1 0.4 0.5 0
110 1 0.45 0.55 0.05
129 1 0.4 0.6 0
309 1 0.4 0.5 0.1
329 1 0.4 0.6 0.1
111 1 0.5 0.5 0
112 1 0.55 0.55 0.05
113 1 0.6 0.5 0
131 1 0.5 0.6 0
133 1 0.6 0.6 0
311 1 0.5 0.5 0.1
313 1 0.6 0.5 0.1
331 1 0.5 0.6 0.1
333 1 0.6 0.6 0.1
114 1 0.65 0.55 0.05
115 1 0.7 0.5 0
135 1 0.7 0.6 0
315 1 0.7 0.5 0.1
335 1 0.7 0.6 0.1
116 1 0.75 0.55 0.05
117 1 0.8 0.5 0
118 1 0.85 0.55 0.05
137 1 0.8 0.6 0
317 1 0.8 0.5 0.1
337 1 0.8 0.6 0.1
119 1 0.9 0.5 0
120 1 0.95 0.55 0.05
139 1 0.9 0.6 0
319 1 0.9 0.5 0.1
339 1 0.9 0.6 0.1
122 1 0.05 0.65 0.05
141 1 0 0.7 0
143 1 0.1 0.7 0
341 1 0 0.7 0.1
343 1 0.1 0.7 0.1
124 1 0.15 0.65 0.05
145 1 0.2 0.7 0
345 1 0.2 0.7 0.1
126 1 0.25 0.65 0.05
128 1 0.35 0.65 0.05
147 1 0.3 0.7 0
347 1 0.3 0.7 0.1
130 1 0.45 0.65 0.05
149 1 0.4 0.7 0
349 1 0.4 0.7 0.1
132 1 0.55 0.65 0.05
151 1 0.5 0.7 0
153 1 0.6 0.7 0
351 1 0.5 0.7 0.1
353 1 0.6 0.7 0.1
134 1 0.65 0.65 0.05
155 1 0.7 0.7 0
355 1 0.7 0.7 0.1
136 1 0.75 0.65 0.05
138 1 0.85 0.65 0.05
157 1 0.8 0.7 0
357 1 0.8 0.7 0.1
140 1 0.95 0.65 0.05
159 1 0.9 0.7 0
359 1 0.9 0.7 0.1
142 1 0.05 0.75 0.05
161 1 0 0.8 0
162 1 0.05 0.85 0.05
163 1 0.1 0.8 0
361 1 0 0.8 0.1
363 1 0.1 0.8 0.1
144 1 0.15 0.75 0.05
164 1 0.15 0.85 0.05
165 1 0.2 0.8 0
365 1 0.2 0.8 0.1
146 1 0.25 0.75 0.05
148 1 0.35 0.75 0.05
166 1 0.25 0.85 0.05
167 1 0.3 0.8 0
168 1 0.35 0.85 0.05
367 1 0.3 0.8 0.1
150 1 0.45 0.75 0.05
169 1 0.4 0.8 0
170 1 0.45 0.85 0.05
369 1 0.4 0.8 0.1
152 1 0.55 0.75 0.05
171 1 0.5 0.8 0
172 1 0.55 0.85 0.05
173 1 0.6 0.8 0
371 1 0.5 0.8 0.1
373 1 0.6 0.8 0.1
154 1 0.65 0.75 0.05
174 1 0.65 0.85 0.05
175 1 0.7 0.8 0
375 1 0.7 0.8 0.1
156 1 0.75 0.75 0.05
158 1 0.85 0.75 0.05
176 1 0.75 0.85 0.05
177 1 0.8 0.8 0
178 1 0.85 0.85 0.05
377 1 0.8 0.8 0.1
160 1 0.95 0.75 0.05
179 1 0.9 0.8 0
180 1 0.95 0.85 0.05
379 1 0.9 0.8 0.1
181 1 0 0.9 0
182 1 0.05 0.95 0.05
183 1 0.1 0.9 0
381 1 0 0.9 0.1
383 1 0.1 0.9 0.1
184 1 0.15 0.95 0.05
185 1 0.2 0.9 0
385 1 0.2 0.9 0.1
186 1 0.25 0.95 0.05
187 1 0.3 0.9 0
188 1 0.35 0.95 0.05
387 1 0.3 0.9 0.1
189 1 0.4 0.9 0
190 1 0.45 0.95 0.05
389 1 0.4 0.9 0.1
191 1 0.5 0.9 0
192 1 0.55 0.95 0.05
193 1 0.6 0.9 0
391 1 0.5 0.9 0.1
393 1 0.6 0.9 0.1
194 1 0.65 0.95 0.05
195 1 0.7 0.9 0
395 1 0.7 0.9 0.1
196 1 0.75 0.95 0.05
197 1 0.8 0.9 0
198 1 0.85 0.95 0.05
397 1 0.8 0.9 0.1
199 1 0.9 0.9 0
200 1 0.95 0.95 0.05
399 1 0.9 0.9 0.1
202 1 0.05 0.05 0.15
401 1 0 0 0.2
403 1 0.1 0 0.2
421 1 0 0.1 0.2
423 1 0.1 0.1 0.2
204 1 0.15 0.05 0.15
405 1 0.2 0 0.2
425 1 0.2 0.1 0.2
206 1 0.25 0.05 0.15
208 1 0.35 0.05 0.15
407 1 0.3 0 0.2
427 1 0.3 0.1 0.2
210 1 0.45 0.05 0.15
409 1 0.4 0 0.2
429 1 0.4 0.1 0.2
212 1 0.55 0.05 0.15
411 1 0.5 0 0.2
413 1 0.6 0 0.2
431 1 0.5 0.1 0.2
433 1 0.6 0.1 0.2
214 1 0.65 0.05 0.15
415 1 0.7 0 0.2
435 1 0.7 0.1 0.2
216 1 0.75 0.05 0.15
218 1 0.85 0.05 0.15
417 1 0.8 0 0.2
437 1 0.8 0.1 0.2
220 1 0.95 0.05 0.15
419 1 0.9 0 0.2
439 1 0.9 0.1 0.2
2004 1 0.901595 0.104905 0.144964
222 1 0.05 0.15 0.15
441 1 0 0.2 0.2
443 1 0.1 0.2 0.2
224 1 0.15 0.15 0.15
445 1 0.2 0.2 0.2
226 1 0.25 0.15 0.15
228 1 0.35 0.15 0.15
447 1 0.3 0.2 0.2
230 1 0.45 0.15 0.15
449 1 0.4 0.2 0.2
232 1 0.55 0.15 0.15
451 1 0.5 0.2 0.2
453 1 0.6 0.2 0.2
234 1 0.65 0.15 0.15
455 1 0.7 0.2 0.2
236 1 0.75 0.15 0.15
238 1 0.85 0.15 0.15
457 1 0.8 0.2 0.2
240 1 0.95 0.15 0.15
459 1 0.9 0.2 0.2
242 1 0.05 0.25 0.15
262 1 0.05 0.35 0.15
461 1 0 0.3 0.2
463 1 0.1 0.3 0.2
244 1 0.15 0.25 0.15
264 1 0.15 0.35 0.15
465 1 0.2 0.3 0.2
246 1 0.25 0.25 0.15
248 1 0.35 0.25 0.15
266 1 0.25 0.35 0.15
268 1 0.35 0.35 0.15
467 1 0.3 0.3 0.2
250 1 0.45 0.25 0.15
270 1 0.45 0.35 0.15
469 1 0.4 0.3 0.2
252 1 0.55 0.25 0.15
272 1 0.55 0.35 0.15
471 1 0.5 0.3 0.2
473 1 0.6 0.3 0.2
2 1 0.632614 0.345463 0.204858
254 1 0.65 0.25 0.15
274 1 0.65 0.35 0.15
475 1 0.7 0.3 0.2
256 1 0.75 0.25 0.15
258 1 0.85 0.25 0.15
276 1 0.75 0.35 0.15
278 1 0.85 0.35 0.15
477 1 0.8 0.3 0.2
260 1 0.95 0.25 0.15
280 1 0.95 0.35 0.15
479 1 0.9 0.3 0.2
282 1 0.05 0.45 0.15
481 1 0 0.4 0.2
483 1 0.1 0.4 0.2
284 1 0.15 0.45 0.15
485 1 0.2 0.4 0.2
286 1 0.25 0.45 0.15
288 1 0.35 0.45 0.15
487 1 0.3 0.4 0.2
290 1 0.45 0.45 0.15
489 1 0.4 0.4 0.2
292 1 0.55 0.45 0.15
491 1 0.5 0.4 0.2
493 1 0.6 0.4 0.2
294 1 0.65 0.45 0.15
495 1 0.7 0.4 0.2
296 1 0.75 0.45 0.15
298 1 0.85 0.45 0.15
497 1 0.8 0.4 0.2
300 1 0.95 0.45 0.15
499 1 0.9 0.4 0.2
302 1 0.05 0.55 0.15
501 1 0 0.5 0.2
503 1 0.1 0.5 0.2
521 1 0 0.6 0.2
523 1 0.1 0.6 0.2
304 1 0.15 0.55 0.15
505 1 0.2 0.5 0.2
525 1 0.2 0.6 0.2
306 1 0.25 0.55 0.15
308 1 0.35 0.55 0.15
507 1 0.3 0.5 0.2
527 1 0.3 0.6 0.2
310 1 0.45 0.55 0.15
509 1 0.4 0.5 0.2
529 1 0.4 0.6 0.2
312 1 0.55 0.55 0.15
511 1 0.5 0.5 0.2
513 1 0.6 0.5 0.2
531 1 0.5 0.6 0.2
533 1 0.6 0.6 0.2
314 1 0.65 0.55 0.15
515 1 0.7 0.5 0.2
535 1 0.7 0.6 0.2
316 1 0.75 0.55 0.15
318 1 0.85 0.55 0.15
517 1 0.8 0.5 0.2
537 1 0.8 0.6 0.2
320 1 0.95 0.55 0.15
519 1 0.9 0.5 0.2
539 1 0.9 0.6 0.2
322 1 0.05 0.65 0.15
541 1 0 0.7 0.2
543 1 0.1 0.7 0.2
324 1 0.15 0.65 0.15
545 1 0.2 0.7 0.2
326 1 0.25 0.65 0.15
328 1 0.35 0.65 0.15
547 1 0.3 0.7 0.2
330 1 0.45 0.65 0.15
549 1 0.4 0.7 0.2
332 1 0.55 0.65 0.15
551 1 0.5 0.7 0.2
553 1 0.6 0.7 0.2
334 1 0.65 0.65 0.15
555 1 0.7 0.7 0.2
336 1 0.75 0.65 0.15
338 1 0.85 0.65 0.15
557 1 0.8 0.7 0.2
340 1 0.95 0.65 0.15
559 1 0.9 0.7 0.2
342 1 0.05 0.75 0.15
362 1 0.05 0.85 0.15
561 1 0 0.8 0.2
563 1 0.1 0.8 0.2
344 1 0.15 0.75 0.15
364 1 0.15 0.85 0.15
565 1 0.2 0.8 0.2
346 1 0.25 0.75 0.15
348 1 0.35 0.75 0.15
366 1 0.25 0.85 0.15
368 1 0.35 0.85 0.15
567 1 0.3 0.8 0.2
350 1 0.45 0.75 0.15
370 1 0.45 0.85 0.15
569 1 0.4 0.8 0.2
352 1 0.55 0.75 0.15
372 1 0.55 0.85 0.15
571 1 0.5 0.8 0.2
573 1 0.6 0.8 0.2
354 1 0.65 0.75 0.15
374 1 0.65 0.85 0.15
575 1 0.7 0.8 0.2
356 1 0.75 0.75 0.15
358 1 0.85 0.75 0.15
376 1 0.75 0.85 0.15
378 1 0.85 0.85 0.15
577 1 0.8 0.8 0.2
360 1 0.95 0.75 0.15
380 1 0.95 0.85 0.15
579 1 0.9 0.8 0.2
382 1 0.05 0.95 0.15
581 1 0 0.9 0.2
583 1 0.1 0.9 0.2
384 1 0.15 0.95 0.15
585 1 0.2 0.9 0.2
386 1 0.25 0.95 0.15
388 1 0.35 0.95 0.15
587 1 0.3 0.9 0.2
390 1 0.45 0.95 0.15
589 1 0.4 0.9 0.2
392 1 0.55 0.95 0.15
591 1 0.5 0.9 0.2
593 1 0.6 0.9 0.2
394 1 0.65 0.95 0.15
595 1 0.7 0.9 0.2
396 1 0.75 0.95 0.15
398 1 0.85 0.95 0.15
597 1 0.8 0.9 0.2
400 1 0.95 0.95 0.15
599 1 0.9 0.9 0.2
402 1 0.05 0.05 0.25
601 1 0 0 0.3
602 1 0.05 0.05 0.35
603 1 0.1 0 0.3
621 1 0 0.1 0.3
623 1 0.1 0.1 0.3
404 1 0.15 0.05 0.25
604 1 0.15 0.05 0.35
605 1 0.2 0 0.3
625 1 0.2 0.1 0.3
406 1 0.25 0.05 0.25
408 1 0.35 0.05 0.25
606 1 0.25 0.05 0.35
607 1 0.3 0 0.3
608 1 0.35 0.05 0.35
627 1 0.3 0.1 0.3
410 1 0.45 0.05 0.25
609 1 0.4 0 0.3
610 1 0.45 0.05 0.35
629 1 0.4 0.1 0.3
412 1 0.55 0.05 0.25
611 1 0.5 0 0.3
612 1 0.55 0.05 0.35
613 1 0.6 0 0.3
631 1 0.5 0.1 0.3
633 1 0.6 0.1 0.3
414 1 0.65 0.05 0.25
614 1 0.65 0.05 0.35
615 1 0.7 0 0.3
635 1 0.7 0.1 0.3
416 1 0.75 0.05 0.25
418 1 0.85 0.05 0.25
616 1 0.75 0.05 0.35
617 1 0.8 0 0.3
618 1 0.85 0.05 0.35
637 1 0.8 0.1 0.3
420 1 0.95 0.05 0.25
619 1 0.9 0 0.3
620 1 0.95 0.05 0.35
639 1 0.9 0.1 0.3
422 1 0.05 0.15 0.25
622 1 0.05 0.15 0.35
641 1 0 0.2 0.3
643 1 0.1 0.2 0.3
424 1 0.15 0.15 0.25
624 1 0.15 0.15 0.35
645 1 0.2 0.2 0.3
426 1 0.25 0.15 0.25
428 1 0.35 0.15 0.25
626 1 0.25 0.15 0.35
628 1 0.35 0.15 0.35
647 1 0.3 0.2 0.3
430 1 0.45 0.15 0.25
630 1 0.45 0.15 0.35
649 1 0.4 0.2 0.3
432 1 0.55 0.15 0.25
632 1 0.55 0.15 0.35
651 1 0.5 0.2 0.3
653 1 0.6 0.2 0.3
434 1 0.65 0.15 0.25
634 1 0.65 0.15 0.35
655 1 0.7 0.2 0.3
436 1 0.75 0.15 0.25
438 1 0.85 0.15 0.25
636 1 0.75 0.15 0.35
638 1 0.85 0.15 0.35
657 1 0.8 0.2 0.3
440 1 0.95 0.15 0.25
640 1 0.95 0.15 0.35
659 1 0.9 0.2 0.3
442 1 0.05 0.25 0.25
462 1 0.05 0.35 0.25
642 1 0.05 0.25 0.35
661 1 0 0.3 0.3
662 1 0.05 0.35 0.35
663 1 0.1 0.3 0.3
444 1 0.15 0.25 0.25
464 1 0.15 0.35 0.25
644 1 0.15 0.25 0.35
664 1 0.15 0.35 0.35
665 1 0.2 0.3 0.3
446 1 0.25 0.25 0.25
448 1 0.35 0.25 0.25
466 1 0.25 0.35 0.25
468 1 0.35 0.35 0.25
646 1 0.25 0.25 0.35
648 1 0.35 0.25 0.35
666 1 0.25 0.35 0.35
667 1 0.3 0.3 0.3
668 1 0.35 0.35 0.35
450 1 0.45 0.25 0.25
470 1 0.45 0.35 0.25
650 1 0.45 0.25 0.35
669 1 0.4 0.3 0.3
670 1 0.45 0.35 0.35
452 1 0.55 0.25 0.25
472 1 0.55 0.35 0.25
652 1 0.55 0.25 0.35
671 1 0.5 0.3 0.3
672 1 0.55 0.35 0.35
673 1 0.6 0.3 0.3
454 1 0.65 0.25 0.25
474 1 0.65 0.35 0.25
654 1 0.65 0.25 0.35
674 1 0.65 0.35 0.35
675 1 0.7 0.3 0.3
456 1 0.75 0.25 0.25
458 1 0.85 0.25 0.25
476 1 0.75 0.35 0.25
478 1 0.85 0.35 0.25
656 1 0.75 0.25 0.35
658 1 0.85 0.25 0.35
676 1 0.75 0.35 0.35
677 1 0.8 0.3 0.3
678 1 0.85 0.35 0.35
460 1 0.95 0.25 0.25
480 1 0.95 0.35 0.25
660 1 0.95 0.25 0.35
679 1 0.9 0.3 0.3
680 1 0.95 0.35 0.35
482 1 0.05 0.45 0.25
681 1 0 0.4 0.3
682 1 0.05 0.45 0.35
683 1 0.1 0.4 0.3
484 1 0.15 0.45 0.25
684 1 0.15 0.45 0.35
685 1 0.2 0.4 0.3
486 1 0.25 0.45 0.25
488 1 0.35 0.45 0.25
686 1 0.25 0.45 0.35
687 1 0.3 0.4 0.3
688 1 0.35 0.45 0.35
490 1 0.45 0.45 0.25
689 1 0.4 0.4 0.3
690 1 0.45 0.45 0.35
492 1 0.55 0.45 0.25
691 1 0.5 0.4 0.3
692 1 0.55 0.45 0.35
693 1 0.6 0.4 0.3
494 1 0.65 0.45 0.25
694 1 0.65 0.45 0.35
695 1 0.7 0.4 0.3
496 1 0.75 0.45 0.25
498 1 0.85 0.45 0.25
696 1 0.75 0.45 0.35
697 1 0.8 0.4 0.3
698 1 0.85 0.45 0.35
500 1 0.95 0.45 0.25
699 1 0.9 0.4 0.3
700 1 0.95 0.45 0.35
502 1 0.05 0.55 0.25
701 1 0 0.5 0.3
702 1 0.05 0.55 0.35
703 1 0.1 0.5 0.3
721 1 0 0.6 0.3
723 1 0.1 0.6 0.3
504 1 0.15 0.55 0.25
704 1 0.15 0.55 0.35
705 1 0.2 0.5 0.3
725 1 0.2 0.6 0.3
506 1 0.25 0.55 0.25
508 1 0.35 0.55 0.25
706 1 0.25 0.55 0.35
707 1 0.3 0.5 0.3
708 1 0.35 0.55 0.35
727 1 0.3 0.6 0.3
510 1 0.45 0.55 0.25
709 1 0.4 0.5 0.3
710 1 0.45 0.55 0.35
729 1 0.4 0.6 0.3
512 1 0.55 0.55 0.25
711 1 0.5 0.5 0.3
712 1 0.55 0.55 0.35
713 1 0.6 0.5 0.3
731 1 0.5 0.6 0.3
733 1 0.6 0.6 0.3
514 1 0.65 0.55 0.25
714 1 0.65 0.55 0.35
715 1 0.7 0.5 0.3
735 1 0.7 0.6 0.3
516 1 0.75 0.55 0.25
518 1 0.85 0.55 0.25
716 1 0.75 0.55 0.35
717 1 0.8 0.5 0.3
718 1 0.85 0.55 0.35
737 1 0.8 0.6 0.3
520 1 0.95 0.55 0.25
719 1 0.9 0.5 0.3
720 1 0.95 0.55 0.35
739 1 0.9 0.6 0.3
522 1 0.05 0.65 0.25
722 1 0.05 0.65 0.35
741 1 0 0.7 0.3
743 1 0.1 0.7 0.3
524 1 0.15 0.65 0.25
724 1 0.15 0.65 0.35
745 1 0.2 0.7 0.3
3 1 0.328002 0.721622 0.298306
526 1 0.25 0.65 0.25
528 1 0.35 0.65 0.25
726 1 0.25 0.65 0.35
728 1 0.35 0.65 0.35
747 1 0.3 0.7 0.3
530 1 0.45 0.65 0.25
730 1 0.45 0.65 0.35
749 1 0.4 0.7 0.3
532 1 0.55 0.65 0.25
732 1 0.55 0.65 0.35
751 1 0.5 0.7 0.3
753 1 0.6 0.7 0.3
534 1 0.65 0.65 0.25
734 1 0.65 0.65 0.35
755 1 0.7 0.7 0.3
536 1 0.75 0.65 0.25
538 1 0.85 0.65 0.25
736 1 0.75 0.65 0.35
738 1 0.85 0.65 0.35
757 1 0.8 0.7 0.3
540 1 0.95 0.65 0.25
740 1 0.95 0.65 0.35
759 1 0.9 0.7 0.3
542 1 0.05 0.75 0.25
562 1 0.05 0.85 0.25
742 1 0.05 0.75 0.35
761 1 0 0.8 0.3
762 1 0.05 0.85 0.35
763 1 0.1 0.8 0.3
544 1 0.15 0.75 0.25
564 1 0.15 0.85 0.25
744 1 0.15 0.75 0.35
764 1 0.15 0.85 0.35
765 1 0.2 0.8 0.3
546 1 0.25 0.75 0.25
548 1 0.35 0.75 0.25
566 1 0.25 0.85 0.25
568 1 0.35 0.85 0.25
746 1 0.25 0.75 0.35
748 1 0.35 0.75 0.35
766 1 0.25 0.85 0.35
767 1 0.3 0.8 0.3
768 1 0.35 0.85 0.35
550 1 0.45 0.75 0.25
570 1 0.45 0.85 0.25
750 1 0.45 0.75 0.35
769 1 0.4 0.8 0.3
770 1 0.45 0.85 0.35
552 1 0.55 0.75 0.25
572 1 0.55 0.85 0.25
752 1 0.55 0.75 0.35
771 1 0.5 0.8 0.3
772 1 0.55 0.85 0.35
773 1 0.6 0.8 0.3
554 1 0.65 0.75 0.25
574 1 0.65 0.85 0.25
754 1 0.65 0.75 0.35
774 1 0.65 0.85 0.35
775 1 0.7 0.8 0.3
556 1 0.75 0.75 0.25
558 1 0.85 0.75 0.25
576 1 0.75 0.85 0.25
578 1 0.85 0.85 0.25
756 1 0.75 0.75 0.35
758 1 0.85 0.75 0.35
776 1 0.75 0.85 0.35
777 1 0.8 0.8 0.3
778 1 0.85 0.85 0.35
560 1 0.95 0.75 0.25
580 1 0.95 0.85 0.25
760 1 0.95 0.75 0.35
779 1 0.9 0.8 0.3
780 1 0.95 0.85 0.35
582 1 0.05 0.95 0.25
781 1 0 0.9 0.3
782 1 0.05 0.95 0.35
783 1 0.1 0.9 0.3
584 1 0.15 0.95 0.25
784 1 0.15 0.95 0.35
785 1 0.2 0.9 0.3
586 1 0.25 0.95 0.25
588 1 0.35 0.95 0.25
786 1 0.25 0.95 0.35
787 1 0.3 0.9 0.3
788 1 0.35 0.95 0.35
590 1 0.45 0.95 0.25
789 1 0.4 0.9 0.3
790 1 0.45 0.95 0.35
221 1 0.561608 0.950101 0.350649
592 1 0.55 0.95 0.25
791 1 0.5 0.9 0.3
792 1 0.55 0.95 0.35
793 1 0.6 0.9 0.3
594 1 0.65 0.95 0.25
794 1 0.65 0.95 0.35
795 1 0.7 0.9 0.3
596 1 0.75 0.95 0.25
598 1 0.85 0.95 0.25
796 1 0.75 0.95 0.35
797 1 0.8 0.9 0.3
798 1 0.85 0.95 0.35
600 1 0.95 0.95 0.25
799 1 0.9 0.9 0.3
800 1 0.95 0.95 0.35
801 1 0 0 0.4
802 1 0.05 0.05 0.45
803 1 0.1 0 0.4
821 1 0 0.1 0.4
823 1 0.1 0.1 0.4
804 1 0.15 0.05 0.45
805 1 0.2 0 0.4
825 1 0.2 0.1 0.4
806 1 0.25 0.05 0.45
807 1 0.3 0 0.4
808 1 0.35 0.05 0.45
827 1 0.3 0.1 0.4
809 1 0.4 0 0.4
810 1 0.45 0.05 0.45
829 1 0.4 0.1 0.4
811 1 0.5 0 0.4
812 1 0.55 0.05 0.45
813 1 0.6 0 0.4
831 1 0.5 0.1 0.4
833 1 0.6 0.1 0.4
814 1 0.65 0.05 0.45
815 1 0.7 0 0.4
835 1 0.7 0.1 0.4
816 1 0.75 0.05 0.45
817 1 0.8 0 0.4
818 1 0.85 0.05 0.45
837 1 0.8 0.1 0.4
819 1 0.9 0 0.4
820 1 0.95 0.05 0.45
839 1 0.9 0.1 0.4
822 1 0.05 0.15 0.45
841 1 0 0.2 0.4
843 1 0.1 0.2 0.4
824 1 0.15 0.15 0.45
845 1 0.2 0.2 0.4
826 1 0.25 0.15 0.45
828 1 0.35 0.15 0.45
847 1 0.3 0.2 0.4
830 1 0.45 0.15 0.45
849 1 0.4 0.2 0.4
832 1 0.55 0.15 0.45
851 1 0.5 0.2 0.4
853 1 0.6 0.2 0.4
834 1 0.65 0.15 0.45
855 1 0.7 0.2 0.4
836 1 0.75 0.15 0.45
838 1 0.85 0.15 0.45
857 1 0.8 0.2 0.4
840 1 0.95 0.15 0.45
859 1 0.9 0.2 0.4
842 1 0.05 0.25 0.45
861 1 0 0.3 0.4
862 1 0.05 0.35 0.45
863 1 0.1 0.3 0.4
844 1 0.15 0.25 0.45
864 1 0.15 0.35 0.45
865 1 0.2 0.3 0.4
846 1 0.25 0.25 0.45
848 1 0.35 0.25 0.45
866 1 0.25 0.35 0.45
867 1 0.3 0.3 0.4
868 1 0.35 0.35 0.45
850 1 0.45 0.25 0.45
869 1 0.4 0.3 0.4
870 1 0.45 0.35 0.45
852 1 0.55 0.25 0.45
871 1 0.5 0.3 0.4
872 1 0.55 0.35 0.45
873 1 0.6 0.3 0.4
854 1 0.65 0.25 0.45
874 1 0.65 0.35 0.45
875 1 0.7 0.3 0.4
856 1 0.75 0.25 0.45
858 1 0.85 0.25 0.45
876 1 0.75 0.35 0.45
877 1 0.8 0.3 0.4
878 1 0.85 0.35 0.45
860 1 0.95 0.25 0.45
879 1 0.9 0.3 0.4
880 1 0.95 0.35 0.45
1 1 0.0410809 0.445912 0.440448
881 1 0 0.4 0.4
882 1 0.05 0.45 0.45
883 1 0.1 0.4 0.4
884 1 0.15 0.45 0.45
885 1 0.2 0.4 0.4
886 1 0.25 0.45 0.45
887 1 0.3 0.4 0.4
888 1 0.35 0.45 0.45
889 1 0.4 0.4 0.4
890 1 0.45 0.45 0.45
891 1 0.5 0.4 0.4
892 1 0.55 0.45 0.45
893 1 0.6 0.4 0.4
894 1 0.65 0.45 0.45
895 1 0.7 0.4 0.4
896 1 0.75 0.45 0.45
897 1 0.8 0.4 0.4
898 1 0.85 0.45 0.45
899 1 0.9 0.4 0.4
900 1 0.95 0.45 0.45
901 1 0 0.5 0.4
902 1 0.05 0.55 0.45
903 1 0.1 0.5 0.4
921 1 0 0.6 0.4
923 1 0.1 0.6 0.4
904 1 0.15 0.55 0.45
905 1 0.2 0.5 0.4
925 1 0.2 0.6 0.4
906 1 0.25 0.55 0.45
907 1 0.3 0.5 0.4
908 1 0.35 0.55 0.45
927 1 0.3 0.6 0.4
909 1 0.4 0.5 0.4
910 1 0.45 0.55 0.45
929 1 0.4 0.6 0.4
911 1 0.5 0.5 0.4
912 1 0.55 0.55 0.45
913 1 0.6 0.5 0.4
931 1 0.5 0.6 0.4
933 1 0.6 0.6 0.4
914 1 0.65 0.55 0.45
915 1 0.7 0.5 0.4
935 1 0.7 0.6 0.4
916 1 0.75 0.55 0.45
917 1 0.8 0.5 0.4
918 1 0.85 0.55 0.45
937 1 0.8 0.6 0.4
919 1 0.9 0.5 0.4
920 1 0.95 0.55 0.45
939 1 0.9 0.6 0.4
922 1 0.05 0.65 0.45
941 1 0 0.7 0.4
943 1 0.1 0.7 0.4
924 1 0.15 0.65 0.45
945 1 0.2 0.7 0.4
926 1 0.25 0.65 0.45
928 1 0.35 0.65 0.45
947 1 0.3 0.7 0.4
201 1 0.408856 0.650947 0.470435
930 1 0.45 0.65 0.45
949 1 0.4 0.7 0.4
932 1 0.55 0.65 0.45
951 1 0.5 0.7 0.4
953 1 0.6 0.7 0.4
934 1 0.65 0.65 0.45
955 1 0.7 0.7 0.4
936 1 0.75 0.65 0.45
938 1 0.85 0.65 0.45
957 1 0.8 0.7 0.4
940 1 0.95 0.65 0.45
959 1 0.9 0.7 0.4
942 1 0.05 0.75 0.45
961 1 0 0.8 0.4
962 1 0.05 0.85 0.45
963 1 0.1 0.8 0.4
944 1 0.15 0.75 0.45
964 1 0.15 0.85 0.45
965 1 0.2 0.8 0.4
946 1 0.25 0.75 0.45
948 1 0.35 0.75 0.45
966 1 0.25 0.85 0.45
967 1 0.3 0.8 0.4
968 1 0.35 0.85 0.45
950 1 0.45 0.75 0.45
969 1 0.4 0.8 0.4
970 1 0.45 0.85 0.45
952 1 0.55 0.75 0.45
971 1 0.5 0.8 0.4
972 1 0.55 0.85 0.45
973 1 0.6 0.8 0.4
954 1 0.65 0.75 0.45
974 1 0.65 0.85 0.45
975 1 0.7 0.8 0.4
956 1 0.75 0.75 0.45
958 1 0.85 0.75 0.45
976 1 0.75 0.85 0.45
977 1 0.8 0.8 0.4
978 1 0.85 0.85 0.45
960 1 0.95 0.75 0.45
979 1 0.9 0.8 0.4
980 1 0.95 0.85 0.45
981 1 0 0.9 0.4
982 1 0.05 0.95 0.45
983 1 0.1 0.9 0.4
984 1 0.15 0.95 0.45
985 1 0.2 0.9 0.4
986 1 0.25 0.95 0.45
987 1 0.3 0.9 0.4
988 1 0.35 0.95 0.45
989 1 0.4 0.9 0.4
990 1 0.45 0.95 0.45
991 1 0.5 0.9 0.4
992 1 0.55 0.95 0.45
993 1 0.6 0.9 0.4
994 1 0.65 0.95 0.45
995 1 0.7 0.9 0.4
996 1 0.75 0.95 0.45
997 1 0.8 0.9 0.4
998 1 0.85 0.95 0.45
999 1 0.9 0.9 0.4
1000 1 0.95 0.95 0.45
1001 1 0 0 0.5
1002 1 0.05 0.05 0.55
1003 1 0.1 0 0.5
1021 1 0 0.1 0.5
1023 1 0.1 0.1 0.5
1201 1 0 0 0.6
1203 1 0.1 0 0.6
1221 1 0 0.1 0.6
1223 1 0.1 0.1 0.6
1004 1 0.15 0.05 0.55
1005 1 0.2 0 0.5
1025 1 0.2 0.1 0.5
1205 1 0.2 0 0.6
1225 1 0.2 0.1 0.6
1006 1 0.25 0.05 0.55
1007 1 0.3 0 0.5
1008 1 0.35 0.05 0.55
1027 1 0.3 0.1 0.5
1207 1 0.3 0 0.6
1227 1 0.3 0.1 0.6
1009 1 0.4 0 0.5
1010 1 0.45 0.05 0.55
1029 1 0.4 0.1 0.5
1209 1 0.4 0 0.6
1229 1 0.4 0.1 0.6
1011 1 0.5 0 0.5
1012 1 0.55 0.05 0.55
1013 1 0.6 0 0.5
1031 1 0.5 0.1 0.5
1033 1 0.6 0.1 0.5
1211 1 0.5 0 0.6
1213 1 0.6 0 0.6
1231 1 0.5 0.1 0.6
1233 1 0.6 0.1 0.6
1014 1 0.65 0.05 0.55
1015 1 0.7 0 0.5
1035 1 0.7 0.1 0.5
1215 1 0.7 0 0.6
1235 1 0.7 0.1 0.6
1016 1 0.75 0.05 0.55
1017 1 0.8 0 0.5
1018 1 0.85 0.05 0.55
1037 1 0.8 0.1 0.5
1217 1 0.8 0 0.6
1237 1 0.8 0.1 0.6
1019 1 0.9 0 0.5
1020 1 0.95 0.05 0.55
1039 1 0.9 0.1 0.5
1219 1 0.9 0 0.6
1239 1 0.9 0.1 0.6
2003 1 0.99929 0.0641138 0.560832
1022 1 0.05 0.15 0.55
1041 1 0 0.2 0.5
1043 1 0.1 0.2 0.5
1241 1 0 0.2 0.6
1243 1 0.1 0.2 0.6
1024 1 0.15 0.15 0.55
1045 1 0.2 0.2 0.5
1245 1 0.2 0.2 0.6
1026 1 0.25 0.15 0.55
1028 1 0.35 0.15 0.55
1047 1 0.3 0.2 0.5
1247 1 0.3 0.2 0.6
1030 1 0.45 0.15 0.55
1049 1 0.4 0.2 0.5
1249 1 0.4 0.2 0.6
1032 1 0.55 0.15 0.55
1051 1 0.5 0.2 0.5
1053 1 0.6 0.2 0.5
1251 1 0.5 0.2 0.6
1253 1 0.6 0.2 0.6
1034 1 0.65 0.15 0.55
1055 1 0.7 0.2 0.5
1255 1 0.7 0.2 0.6
1036 1 0.75 0.15 0.55
1038 1 0.85 0.15 0.55
1057 1 0.8 0.2 0.5
1257 1 0.8 0.2 0.6
1040 1 0.95 0.15 0.55
1059 1 0.9 0.2 0.5
1259 1 0.9 0.2 0.6
1042 1 0.05 0.25 0.55
1061 1 0 0.3 0.5
1062 1 0.05 0.35 0.55
1063 1 0.1 0.3 0.5
1261 1 0 0.3 0.6
1263 1 0.1 0.3 0.6
1044 1 0.15 0.25 0.55
1064 1 0.15 0.35 0.55
1065 1 0.2 0.3 0.5
1265 1 0.2 0.3 0.6
1046 1 0.25 0.25 0.55
1048 1 0.35 0.25 0.55
1066 1 0.25 0.35 0.55
1067 1 0.3 0.3 0.5
1068 1 0.35 0.35 0.55
1267 1 0.3 0.3 0.6
1050 1 0.45 0.25 0.55
1069 1 0.4 0.3 0.5
1070 1 0.45 0.35 0.55
1269 1 0.4 0.3 0.6
1052 1 0.55 0.25 0.55
1071 1 0.5 0.3 0.5
1072 1 0.55 0.35 0.55
1073 1 0.6 0.3 0.5
1271 1 0.5 0.3 0.6
1273 1 0.6 0.3 0.6
1054 1 0.65 0.25 0.55
1074 1 0.65 0.35 0.55
1075 1 0.7 0.3 0.5
1275 1 0.7 0.3 0.6
1056 1 0.75 0.25 0.55
1058 1 0.85 0.25 0.55
1076 1 0.75 0.35 0.55
1077 1 0.8 0.3 0.5
1078 1 0.85 0.35 0.55
1277 1 0.8 0.3 0.6
1060 1 0.95 0.25 0.55
1079 1 0.9 0.3 0.5
1080 1 0.95 0.35 0.55
1279 1 0.9 0.3 0.6
1081 1 0 0.4 0.5
1082 1 0.05 0.45 0.55
1083 1 0.1 0.4 0.5
1281 1 0 0.4 0.6
1283 1 0.1 0.4 0.6
1084 1 0.15 0.45 0.55
1085 1 0.2 0.4 0.5
1285 1 0.2 0.4 0.6
203 1 0.362788 0.384159 0.558244
1086 1 0.25 0.45 0.55
1087 1 0.3 0.4 0.5
1088 1 0.35 0.45 0.55
1287 1 0.3 0.4 0.6
1089 1 0.4 0.4 0.5
1090 1 0.45 0.45 0.55
1289 1 0.4 0.4 0.6
1091 1 0.5 0.4 0.5
1092 1 0.55 0.45 0.55
1093 1 0.6 0.4 0.5
1291 1 0.5 0.4 0.6
1293 1 0.6 0.4 0.6
1094 1 0.65 0.45 0.55
1095 1 0.7 0.4 0.5
1295 1 0.7 0.4 0.6
1096 1 0.75 0.45 0.55
1097 1 0.8 0.4 0.5
1098 1 0.85 0.45 0.55
1297 1 0.8 0.4 0.6
1099 1 0.9 0.4 0.5
1100 1 0.95 0.45 0.55
1299 1 0.9 0.4 0.6
1101 1 0 0.5 0.5
1102 1 0.05 0.55 0.55
1103 1 0.1 0.5 0.5
1121 1 0 0.6 0.5
1123 1 0.1 0.6 0.5
1301 1 0 0.5 0.6
1303 1 0.1 0.5 0.6
1321 1 0 0.6 0.6
1323 1 0.1 0.6 0.6
1104 1 0.15 0.55 0.55
1105 1 0.2 0.5 0.5
1125 1 0.2 0.6 0.5
1305 1 0.2 0.5 0.6
1325 1 0.2 0.6 0.6
1106 1 0.25 0.55 0.55
1107 1 0.3 0.5 0.5
1108 1 0.35 0.55 0.55
1127 1 0.3 0.6 0.5
1307 1 0.3 0.5 0.6
1327 1 0.3 0.6 0.6
1109 1 0.4 0.5 0.5
1110 1 0.45 0.55 0.55
1129 1 0.4 0.6 0.5
1309 1 0.4 0.5 0.6
1329 1 0.4 0.6 0.6
1111 1 0.5 0.5 0.5
1112 1 0.55 0.55 0.55
1113 1 0.6 0.5 0.5
1131 1 0.5 0.6 0.5
1133 1 0.6 0.6 0.5
1311 1 0.5 0.5 0.6
1313 1 0.6 0.5 0.6
1331 1 0.5 0.6 0.6
1333 1 0.6 0.6 0.6
1114 1 0.65 0.55 0.55
1115 1 0.7 0.5 0.5
1135 1 0.7 0.6 0.5
1315 1 0.7 0.5 0.6
1335 1 0.7 0.6 0.6
1116 1 0.75 0.55 0.55
1117 1 0.8 0.5 0.5
1118 1 0.85 0.55 0.55
1137 1 0.8 0.6 0.5
1317 1 0.8 0.5 0.6
1337 1 0.8 0.6 0.6
1119 1 0.9 0.5 0.5
1120 1 0.95 0.55 0.55
1139 1 0.9 0.6 0.5
1319 1 0.9 0.5 0.6
1339 1 0.9 0.6 0.6
1122 1 0.05 0.65 0.55
1141 1 0 0.7 0.5
1143 1 0.1 0.7 0.5
1341 1 0 0.7 0.6
1343 1 0.1 0.7 0.6
1124 1 0.15 0.65 0.55
1145 1 0.2 0.7 0.5
1345 1 0.2 0.7 0.6
1126 1 0.25 0.65 0.55
1128 1 0.35 0.65 0.55
1147 1 0.3 0.7 0.5
1347 1 0.3 0.7 0.6
1130 1 0.45 0.65 0.55
1149 1 0.4 0.7 0.5
1349 1 0.4 0.7 0.6
1132 1 0.55 0.65 0.55
1151 1 0.5 0.7 0.5
1153 1 0.6 0.7 0.5
1351 1 0.5 0.7 0.6
1353 1 0.6 0.7 0.6
1134 1 0.65 0.65 0.55
1155 1 0.7 0.7 0.5
1355 1 0.7 0.7 0.6
1136 1 0.75 0.65 0.55
1138 1 0.85 0.65 0.55
1157 1 0.8 0.7 0.5
1357 1 0.8 0.7 0.6
1140 1 0.95 0.65 0.55
1159 1 0.9 0.7 0.5
1359 1 0.9 0.7 0.6
1142 1 0.05 0.75 0.55
1161 1 0 0.8 0.5
1162 1 0.05 0.85 0.55
1163 1 0.1 0.8 0.5
1361 1 0 0.8 0.6
1363 1 0.1 0.8 0.6
1144 1 0.15 0.75 0.55
1164 1 0.15 0.85 0.55
1165 1 0.2 0.8 0.5
1365 1 0.2 0.8 0.6
1146 1 0.25 0.75 0.55
1148 1 0.35 0.75 0.55
1166 1 0.25 0.85 0.55
1167 1 0.3 0.8 0.5
1168 1 0.35 0.85 0.55
1367 1 0.3 0.8 0.6
1150 1 0.45 0.75 0.55
1169 1 0.4 0.8 0.5
1170 1 0.45 0.85 0.55
1369 1 0.4 0.8 0.6
1152 1 0.55 0.75 0.55
1171 1 0.5 0.8 0.5
1172 1 0.55 0.85 0.55
1173 1 0.6 0.8 0.5
1371 1 0.5 0.8 0.6
1373 1 0.6 0.8 0.6
1154 1 0.65 0.75 0.55
1174 1 0.65 0.85 0.55
1175 1 0.7 0.8 0.5
1375 1 0.7 0.8 0.6
1156 1 0.75 0.75 0.55
1158 1 0.85 0.75 0.55
1176 1 0.75 0.85 0.55
1177 1 0.8 0.8 0.5
1178 1 0.85 0.85 0.55
1377 1 0.8 0.8 0.6
1160 1 0.95 0.75 0.55
1179 1 0.9 0.8 0.5
1180 1 0.95 0.85 0.55
1379 1 0.9 0.8 0.6
1181 1 0 0.9 0.5
1182 1 0.05 0.95 0.55
1183 1 0.1 0.9 0.5
1381 1 0 0.9 0.6
1383 1 0.1 0.9 0.6
1184 1 0.15 0.95 0.55
1185 1 0.2 0.9 0.5
1385 1 0.2 0.9 0.6
1186 1 0.25 0.95 0.55
1187 1 0.3 0.9 0.5
1188 1 0.35 0.95 0.55
1387 1 0.3 0.9 0.6
1189 1 0.4 0.9 0.5
1190 1 0.45 0.95 0.55
1389 1 0.4 0.9 0.6
1191 1 0.5 0.9 0.5
1192 1 0.55 0.95 0.55
1193 1 0.6 0.9 0.5
1391 1 0.5 0.9 0.6
1393 1 0.6 0.9 0.6
1194 1 0.65 0.95 0.55
1195 1 0.7 0.9 0.5
1395 1 0.7 0.9 0.6
1196 1 0.75 0.95 0.55
1197 1 0.8 0.9 0.5
1198 1 0.85 0.95 0.55
1397 1 0.8 0.9 0.6
1199 1 0.9 0.9 0.5
1200 1 0.95 0.95 0.55
1399 1 0.9 0.9 0.6
1202 1 0.05 0.05 0.65
1401 1 0 0 0.7
1403 1 0.1 0 0.7
1421 1 0 0.1 0.7
1423 1 0.1 0.1 0.7
1204 1 0.15 0.05 0.65
1405 1 0.2 0 0.7
1425 1 0.2 0.1 0.7
1206 1 0.25 0.05 0.65
1208 1 0.35 0.05 0.65
1407 1 0.3 0 0.7
1427 1 0.3 0.1 0.7
1210 1 0.45 0.05 0.65
1409 1 0.4 0 0.7
1429 1 0.4 0.1 0.7
1212 1 0.55 0.05 0.65
1411 1 0.5 0 0.7
1413 1 0.6 0 0.7
1431 1 0.5 0.1 0.7
1433 1 0.6 0.1 0.7
1214 1 0.65 0.05 0.65
1415 1 0.7 0 0.7
1435 1 0.7 0.1 0.7
1216 1 0.75 0.05 0.65
1218 1 0.85 0.05 0.65
1417 1 0.8 0 0.7
1437 1 0.8 0.1 0.7
1220 1 0.95 0.05 0.65
1419 1 0.9 0 0.7
1439 1 0.9 0.1 0.7
1222 1 0.05 0.15 0.65
1441 1 0 0.2 0.7
1443 1 0.1 0.2 0.7
1224 1 0.15 0.15 0.65
1445 1 0.2 0.2 0.7
1226 1 0.25 0.15 0.65
1228 1 0.35 0.15 0.65
1447 1 0.3 0.2 0.7
1230 1 0.45 0.15 0.65
1449 1 0.4 0.2 0.7
1232 1 0.55 0.15 0.65
1451 1 0.5 0.2 0.7
1453 1 0.6 0.2 0.7
1234 1 0.65 0.15 0.65
1455 1 0.7 0.2 0.7
1236 1 0.75 0.15 0.65
1238 1 0.85 0.15 0.65
1457 1 0.8 0.2 0.7
1240 1 0.95 0.15 0.65
1459 1 0.9 0.2 0.7
1242 1 0.05 0.25 0.65
1262 1 0.05 0.35 0.65
1461 1 0 0.3 0.7
1463 1 0.1 0.3 0.7
1244 1 0.15 0.25 0.65
1264 1 0.15 0.35 0.65
1465 1 0.2 0.3 0.7
1246 1 0.25 0.25 0.65
1248 1 0.35 0.25 0.65
1266 1 0.25 0.35 0.65
1268 1 0.35 0.35 0.65
1467 1 0.3 0.3 0.7
1250 1 0.45 0.25 0.65
1270 1 0.45 0.35 0.65
1469 1 0.4 0.3 0.7
1252 1 0.55 0.25 0.65
1272 1 0.55 0.35 0.65
1471 1 0.5 0.3 0.7
1473 1 0.6 0.3 0.7
1254 1 0.65 0.25 0.65
1274 1 0.65 0.35 0.65
1475 1 0.7 0.3 0.7
1256 1 0.75 0.25 0.65
1258 1 0.85 0.25 0.65
1276 1 0.75 0.35 0.65
1278 1 0.85 0.35 0.65
1477 1 0.8 0.3 0.7
1260 1 0.95 0.25 0.65
1280 1 0.95 0.35 0.65
1479 1 0.9 0.3 0.7
1282 1 0.05 0.45 0.65
1481 1 0 0.4 0.7
1483 1 0.1 0.4 0.7
1284 1 0.15 0.45 0.65
1485 1 0.2 0.4 0.7
1286 1 0.25 0.45 0.65
1288 1 0.35 0.45 0.65
1487 1 0.3 0.4 0.7
1290 1 0.45 0.45 0.65
1489 1 0.4 0.4 0.7
1292 1 0.55 0.45 0.65
1491 1 0.5 0.4 0.7
1493 1 0.6 0.4 0.7
1294 1 0.65 0.45 0.65
1495 1 0.7 0.4 0.7
1296 1 0.75 0.45 0.65
1298 1 0.85 0.45 0.65
1497 1 0.8 0.4 0.7
1300 1 0.95 0.45 0.65
1499 1 0.9 0.4 0.7
1302 1 0.05 0.55 0.65
1501 1 0 0.5 0.7
1503 1 0.1 0.5 0.7
1521 1 0 0.6 0.7
1523 1 0.1 0.6 0.7
1304 1 0.15 0.55 0.65
1505 1 0.2 0.5 0.7
1525 1 0.2 0.6 0.7
1306 1 0.25 0.55 0.65
1308 1 0.35 0.55 0.65
1507 1 0.3 0.5 0.7
1527 1 0.3 0.6 0.7
1310 1 0.45 0.55 0.65
1509 1 0.4 0.5 0.7
1529 1 0.4 0.6 0.7
1312 1 0.55 0.55 0.65
1511 1 0.5 0.5 0.7
1513 1 0.6 0.5 0.7
1531 1 0.5 0.6 0.7
1533 1 0.6 0.6 0.7
1314 1 0.65 0.55 0.65
1515 1 0.7 0.5 0.7
1535 1 0.7 0.6 0.7
1316 1 0.75 0.55 0.65
1318 1 0.85 0.55 0.65
1517 1 0.8 0.5 0.7
1537 1 0.8 0.6 0.7
1320 1 0.95 0.55 0.65
1519 1 0.9 0.5 0.7
1539 1 0.9 0.6 0.7
1322 1 0.05 0.65 0.65
1541 1 0 0.7 0.7
1543 1 0.1 0.7 0.7
1324 1 0.15 0.65 0.65
1545 1 0.2 0.7 0.7
1326 1 0.25 0.65 0.65
1328 1 0.35 0.65 0.65
1547 1 0.3 0.7 0.7
1330 1 0.45 0.65 0.65
1549 1 0.4 0.7 0.7
1332 1 0.55 0.65 0.65
1551 1 0.5 0.7 0.7
1553 1 0.6 0.7 0.7
1334 1 0.65 0.65 0.65
1555 1 0.7 0.7 0.7
1336 1 0.75 0.65 0.65
1338 1 0.85 0.65 0.65
1557 1 0.8 0.7 0.7
1340 1 0.95 0.65 0.65
1559 1 0.9 0.7 0.7
1342 1 0.05 0.75 0.65
1362 1 0.05 0.85 0.65
1561 1 0 0.8 0.7
1563 1 0.1 0.8 0.7
1344 1 0.15 0.75 0.65
1364 1 0.15 0.85 0.65
1565 1 0.2 0.8 0.7
1346 1 0.25 0.75 0.65
1348 1 0.35 0.75 0.65
1366 1 0.25 0.85 0.65
1368 1 0.35 0.85 0.65
1567 1 0.3 0.8 0.7
1350 1 0.45 0.75 0.65
1370 1 0.45 0.85 0.65
1569 1 0.4 0.8 0.7
1352 1 0.55 0.75 0.65
1372 1 0.55 0.85 0.65
1571 1 0.5 0.8 0.7
1573 1 0.6 0.8 0.7
1354 1 0.65 0.75 0.65
1374 1 0.65 0.85 0.65
1575 1 0.7 0.8 0.7
1356 1 0.75 0.75 0.65
1358 1 0.85 0.75 0.65
1376 1 0.75 0.85 0.65
1378 1 0.85 0.85 0.65
1577 1 0.8 0.8 0.7
1360 1 0.95 0.75 0.65
1380 1 0.95 0.85 0.65
1579 1 0.9 0.8 0.7
1382 1 0.05 0.95 0.65
1581 1 0 0.9 0.7
1583 1 0.1 0.9 0.7
1384 1 0.15 0.95 0.65
1585 1 0.2 0.9 0.7
1386 1 0.25 0.95 0.65
1388 1 0.35 0.95 0.65
1587 1 0.3 0.9 0.7
1390 1 0.45 0.95 0.65
1589 1 0.4 0.9 0.7
1392 1 0.55 0.95 0.65
1591 1 0.5 0.9 0.7
1593 1 0.6 0.9 0.7
1394 1 0.65 0.95 0.65
1595 1 0.7 0.9 0.7
1396 1 0.75 0.95 0.65
1398 1 0.85 0.95 0.65
1597 1 0.8 0.9 0.7
1400 1 0.95 0.95 0.65
1599 1 0.9 0.9 0.7
1402 1 0.05 0.05 0.75
1601 1 0 0 0.8
1602 1 0.05 0.05 0.85
1603 1 0.1 0 0.8
1621 1 0 0.1 0.8
1623 1 0.1 0.1 0.8
1404 1 0.15 0.05 0.75
1604 1 0.15 0.05 0.85
1605 1 0.2 0 0.8
1625 1 0.2 0.1 0.8
1406 1 0.25 0.05 0.75
1408 1 0.35 0.05 0.75
1606 1 0.25 0.05 0.85
1607 1 0.3 0 0.8
1608 1 0.35 0.05 0.85
1627 1 0.3 0.1 0.8
1410 1 0.45 0.05 0.75
1609 1 0.4 0 0.8
1610 1 0.45 0.05 0.85
1629 1 0.4 0.1 0.8
1412 1 0.55 0.05 0.75
1611 1 0.5 0 0.8
1612 1 0.55 0.05 0.85
1613 1 0.6 0 0.8
1631 1 0.5 0.1 0.8
1633 1 0.6 0.1 0.8
1414 1 0.65 0.05 0.75
1614 1 0.65 0.05 0.85