ITEM: TIMESTEP
42
ITEM: NUMBER OF ATOMS
2004
ITEM: BOX BOUNDS pp pp pp
0.0000000000000000e+00 3.5539999999999999e+01
0.0000000000000000e+00 3.5539999999999999e+01
0.0000000000000000e+00 3.5539999999999999e+01
ITEM: ATOMS id type xs ys zs
1 1 0.00210341 0.000770486 0.000267809
2 1 0.0498656 0.0490159 0.0551991
23 1 0.101138 0.0972179 0.00118281
203 1 0.102547 0.00171729 0.0967512
223 1 0.104035 0.0967933 0.0958157
4 1 0.14667 0.0542749 0.0489973
5 1 0.198653 0.00167006 0.00281611
25 1 0.197346 0.0965232 0.00200453
205 1 0.201539 0.00203543 0.0998011
225 1 0.199888 0.0969429 0.100156
6 1 0.254191 0.0523375 0.0445024
8 1 0.364232 0.0464368 0.0286657
27 1 0.299965 0.103364 0.00587611
227 1 0.286238 0.122028 0.103107
1112 1 0.325739 0.0605172 0.0898897
10 1 0.451008 0.0474372 0.0517528
229 1 0.397465 0.105056 0.0956052
12 1 0.550213 0.0465837 0.0514603
33 1 0.598444 0.101531 0.000739316
231 1 0.503487 0.102959 0.0946222
233 1 0.600049 0.102349 0.099271
14 1 0.652808 0.0480585 0.0508467
235 1 0.697084 0.103522 0.096939
16 1 0.749308 0.0488006 0.0512756
18 1 0.844882 0.0433095 0.0482787
237 1 0.806391 0.100464 0.0953384
21 1 0.99666 0.100315 0.00102512
221 1 0.995274 0.0985264 0.0953942
20 1 0.955076 0.0425905 0.0451555
219 1 0.90235 0.00415944 0.101479
239 1 0.900334 0.0887239 0.0736179
22 1 0.0518359 0.151094 0.0529131
43 1 0.0941881 0.195425 0.00404407
241 1 0.000703494 0.204634 0.096908
243 1 0.0961389 0.203961 0.100822
42 1 0.0546009 0.247802 0.04979
24 1 0.149889 0.154021 0.0485632
245 1 0.204673 0.196678 0.102189
26 1 0.244472 0.152956 0.045866
46 1 0.244487 0.249003 0.0480874
28 1 0.348809 0.144445 0.0456491
47 1 0.302264 0.202885 0.0020553
247 1 0.302138 0.201918 0.0990542
30 1 0.452885 0.153401 0.0540629
49 1 0.400173 0.200135 0.000865043
249 1 0.395822 0.200528 0.0968894
251 1 0.497212 0.197736 0.0948571
32 1 0.547893 0.155058 0.053282
253 1 0.603796 0.196741 0.104134
34 1 0.653182 0.145166 0.0519441
55 1 0.701074 0.199657 0.00170144
255 1 0.699157 0.201074 0.0969949
36 1 0.751478 0.144836 0.0539364
38 1 0.846851 0.151437 0.0559553
257 1 0.795096 0.204059 0.0951826
58 1 0.850431 0.249247 0.0549415
41 1 0.997921 0.197788 0.00236993
40 1 0.952141 0.15183 0.0568639
259 1 0.902185 0.194732 0.095218
60 1 0.946685 0.248721 0.0546924
62 1 0.0545767 0.352254 0.0508938
261 1 0.000877211 0.30052 0.0969266
263 1 0.0972097 0.299957 0.104973
44 1 0.150579 0.250661 0.0489318
64 1 0.149687 0.350534 0.0500731
265 1 0.20413 0.302608 0.103369
66 1 0.245802 0.349255 0.0535694
48 1 0.354966 0.254866 0.0474286
68 1 0.353774 0.353109 0.051783
267 1 0.300521 0.296195 0.0974975
50 1 0.454003 0.253042 0.0528883
69 1 0.396281 0.296651 0.00140269
70 1 0.449662 0.350589 0.049082
269 1 0.396281 0.296155 0.0970464
52 1 0.549594 0.251333 0.0534934
72 1 0.549131 0.34682 0.0527652
271 1 0.50242 0.306854 0.103451
273 1 0.601261 0.302448 0.106811
54 1 0.645236 0.253527 0.0517304
74 1 0.650377 0.350331 0.0518623
275 1 0.70237 0.295874 0.0934411
76 1 0.749753 0.352685 0.0491869
56 1 0.753029 0.251489 0.0528685
77 1 0.802565 0.299696 0.00153488
78 1 0.848075 0.348334 0.0543239
277 1 0.796176 0.301672 0.0964414
61 1 0.998205 0.301684 0.0012468
80 1 0.948701 0.346419 0.0559217
279 1 0.903131 0.301854 0.0951404
82 1 0.0542763 0.448935 0.050298
283 1 0.0962899 0.396586 0.104533
103 1 0.0934307 0.497062 0.00218407
84 1 0.148507 0.449256 0.0498769
285 1 0.202351 0.401481 0.104534
86 1 0.244659 0.451502 0.0506631
105 1 0.204996 0.496374 0.00258554
88 1 0.353746 0.447154 0.0481508
287 1 0.297857 0.398982 0.0953171
89 1 0.394855 0.398675 0.00396127
90 1 0.44939 0.448997 0.046227
289 1 0.405757 0.400876 0.102079
92 1 0.549074 0.455262 0.0493826
291 1 0.501251 0.401952 0.102878
293 1 0.59736 0.400925 0.104494
111 1 0.504226 0.495846 0.00331898
313 1 0.600818 0.498382 0.102803
94 1 0.650153 0.447333 0.0522332
295 1 0.703785 0.404621 0.0933845
96 1 0.75281 0.44975 0.0467553
97 1 0.803918 0.398065 0.00150606
98 1 0.849119 0.453483 0.0476328
297 1 0.802779 0.39792 0.0955094
117 1 0.796477 0.496186 0.00364601
281 1 0.997825 0.397676 0.0967119
100 1 0.946174 0.452433 0.0542306
299 1 0.899798 0.400035 0.0956487
101 1 0.998575 0.487909 0.0086944
119 1 0.904856 0.494511 9.38996e-05
102 1 0.0539867 0.547935 0.0452034
121 1 0.00175495 0.617551 0.0155017
123 1 0.0966758 0.605035 0.00304243
303 1 0.0962401 0.502733 0.101081
321 1 0.000739011 0.5958 0.100955
323 1 0.0970605 0.598575 0.101022
104 1 0.149683 0.548216 0.0456856
305 1 0.204463 0.501468 0.0995125
325 1 0.203118 0.599392 0.0981848
106 1 0.244423 0.5483 0.05319
107 1 0.300017 0.501601 0.00105513
108 1 0.353425 0.54613 0.0485585
127 1 0.30139 0.600317 0.00057595
307 1 0.300414 0.502498 0.0966883
327 1 0.301372 0.597803 0.0959785
109 1 0.396084 0.504678 0.00265157
110 1 0.453488 0.548741 0.0471775
129 1 0.397043 0.601154 0.00198429
309 1 0.398803 0.503646 0.0987972
329 1 0.400351 0.598008 0.0993771
131 1 0.496836 0.603694 0.00309474
311 1 0.495628 0.500884 0.100112
331 1 0.495289 0.599857 0.101812
112 1 0.550598 0.551007 0.0492586
333 1 0.60409 0.596321 0.103131
114 1 0.645681 0.551646 0.0506148
115 1 0.699732 0.500026 0.000730912
135 1 0.699127 0.597033 0.000842265
315 1 0.701303 0.502453 0.0990182
335 1 0.702174 0.598503 0.100231
116 1 0.753583 0.550881 0.04644
118 1 0.850329 0.549594 0.0462033
137 1 0.795898 0.602234 0.0057234
317 1 0.796181 0.504007 0.101048
337 1 0.797757 0.599773 0.101844
301 1 0.99979 0.502875 0.100229
120 1 0.945191 0.550811 0.0460787
139 1 0.90606 0.602982 0.000759625
319 1 0.903412 0.500235 0.0989883
339 1 0.903079 0.597207 0.100775
122 1 0.0536311 0.654675 0.0568773
341 1 0.00203178 0.700565 0.0936879
343 1 0.101302 0.699796 0.095694
142 1 0.052469 0.748484 0.0548276
124 1 0.148011 0.645505 0.0461201
345 1 0.200117 0.6976 0.0957609
126 1 0.249005 0.654476 0.0564831
128 1 0.352309 0.654911 0.0548997
347 1 0.297289 0.696457 0.0960544
148 1 0.351315 0.748927 0.0544838
130 1 0.451377 0.654462 0.0534076
349 1 0.401069 0.695396 0.0970516
351 1 0.499461 0.69743 0.095815
150 1 0.448342 0.749679 0.0535166
132 1 0.549795 0.64611 0.0505265
151 1 0.503543 0.701124 0.000169259
353 1 0.601837 0.702724 0.0942766
152 1 0.54645 0.747496 0.0551619
134 1 0.645989 0.647001 0.0505997
155 1 0.697316 0.702245 0.000873187
355 1 0.699685 0.703091 0.0962561
154 1 0.649551 0.746536 0.0568087
136 1 0.753446 0.651571 0.0452149
138 1 0.850917 0.652155 0.0480321
157 1 0.796119 0.69981 0.00443104
357 1 0.797356 0.69652 0.100744
156 1 0.755792 0.749373 0.0463256
140 1 0.946311 0.652437 0.0534264
359 1 0.894555 0.702911 0.104242
160 1 0.946692 0.74729 0.0525087
162 1 0.0541126 0.851724 0.0486431
363 1 0.0949154 0.799624 0.103032
144 1 0.15142 0.753569 0.0510898
164 1 0.149962 0.850376 0.0496566
365 1 0.202445 0.794603 0.0960245
146 1 0.24913 0.752018 0.0537423
166 1 0.245484 0.849309 0.0498109
167 1 0.302637 0.803067 0.00131951
168 1 0.346109 0.844346 0.0490849
367 1 0.302544 0.805663 0.0991657
169 1 0.398008 0.804238 0.00184153
170 1 0.454914 0.845932 0.0529044
369 1 0.399006 0.805182 0.0992965
371 1 0.497732 0.802827 0.0968953
171 1 0.503745 0.797551 0.000916128
172 1 0.549582 0.854417 0.0473738
373 1 0.60305 0.799343 0.0950283
174 1 0.647521 0.854261 0.0466499
175 1 0.697284 0.798963 0.000474679
375 1 0.699668 0.801048 0.0972306
158 1 0.850426 0.750041 0.0486879
176 1 0.755895 0.84712 0.0475528
178 1 0.850423 0.851 0.0487668
377 1 0.797242 0.800496 0.103525
361 1 0.999876 0.802876 0.100198
180 1 0.946164 0.85279 0.047594
379 1 0.903889 0.801528 0.104054
182 1 0.0523539 0.948271 0.0503748
383 1 0.0951135 0.898011 0.103068
184 1 0.14973 0.944961 0.0496724
185 1 0.200707 0.905464 0.00107351
385 1 0.204079 0.903624 0.101755
186 1 0.245459 0.944698 0.0458494
7 1 0.296982 0.997392 0.00617431
207 1 0.296996 0.993307 0.101301
187 1 0.303666 0.899542 0.0046389
188 1 0.349232 0.957249 0.0473609
387 1 0.302887 0.900623 0.100913
209 1 0.395608 0.996019 0.100331
189 1 0.398722 0.898825 0.0054101
190 1 0.454809 0.952838 0.0497933
389 1 0.39809 0.900033 0.100184
191 1 0.494182 0.897195 0.00318026
391 1 0.496043 0.898396 0.101768
211 1 0.502972 0.998732 0.107009
213 1 0.601367 0.997078 0.105021
192 1 0.550337 0.950084 0.0485188
193 1 0.603293 0.893906 0.00277575
393 1 0.604387 0.898009 0.101476
215 1 0.698993 0.993568 0.103217
194 1 0.645856 0.950857 0.0474031
195 1 0.700078 0.896652 0.00350819
395 1 0.699666 0.898067 0.101647
217 1 0.79663 0.994016 0.102736
196 1 0.752949 0.95173 0.0496186
198 1 0.850359 0.947584 0.0487999
397 1 0.794876 0.897038 0.102671
201 1 0.999187 0.999464 0.0978464
381 1 0.999864 0.89862 0.10373
200 1 0.945798 0.948842 0.0495553
399 1 0.903476 0.897472 0.103126
202 1 0.0501039 0.0519821 0.151822
423 1 0.105383 0.097591 0.201446
402 1 0.0495944 0.0513413 0.247656
204 1 0.145154 0.0527254 0.152783
405 1 0.200967 0.00115184 0.196344
425 1 0.200834 0.0973973 0.19635
404 1 0.146181 0.052841 0.248032
206 1 0.255465 0.0518503 0.152749
208 1 0.353948 0.0506698 0.156519
427 1 0.296852 0.100295 0.194287
406 1 0.25306 0.0534759 0.248955
408 1 0.349113 0.051863 0.248682
210 1 0.448105 0.0525105 0.147642
429 1 0.405301 0.102545 0.205051
410 1 0.445721 0.0545858 0.24572
212 1 0.547243 0.047831 0.146729
431 1 0.503836 0.0981926 0.202301
433 1 0.599369 0.102162 0.200964
214 1 0.654285 0.0499313 0.148995
435 1 0.697607 0.103519 0.204194
216 1 0.749842 0.0516789 0.149441
416 1 0.749717 0.0494598 0.247915
218 1 0.845684 0.0460326 0.152619
437 1 0.806844 0.100271 0.204117
421 1 0.994216 0.10107 0.203049
220 1 0.955374 0.0474963 0.153012
419 1 0.899109 0.00308313 0.195441
439 1 0.900095 0.0891015 0.217103
1110 1 0.900084 0.107112 0.144559
420 1 0.954381 0.0470055 0.249428
222 1 0.0498881 0.14794 0.151392
441 1 0.00421382 0.206407 0.204597
443 1 0.0997249 0.205984 0.201518
242 1 0.0529151 0.245952 0.146566
422 1 0.050858 0.1473 0.247254
442 1 0.0482362 0.244936 0.248891
224 1 0.146799 0.150137 0.151573
445 1 0.196374 0.20519 0.201378
226 1 0.243751 0.156007 0.154406
244 1 0.150152 0.247746 0.144872
424 1 0.149473 0.148736 0.24868
228 1 0.353043 0.145783 0.152624
447 1 0.30065 0.198453 0.193416
428 1 0.349162 0.149105 0.248483
230 1 0.450769 0.15051 0.150797
449 1 0.396628 0.204328 0.195353
250 1 0.452233 0.248586 0.150097
430 1 0.448088 0.150906 0.245371
450 1 0.450529 0.247205 0.24752
232 1 0.546908 0.153119 0.14987
451 1 0.505975 0.198103 0.202937
453 1 0.603001 0.196581 0.200965
252 1 0.547287 0.248657 0.147324
432 1 0.546559 0.153846 0.247366
234 1 0.65512 0.145438 0.147494
455 1 0.697263 0.201095 0.202132
236 1 0.752284 0.146099 0.150031
238 1 0.844924 0.155946 0.150329
457 1 0.793579 0.204332 0.205017
258 1 0.850503 0.249935 0.1502
436 1 0.751291 0.145623 0.245229
438 1 0.84739 0.151542 0.245083
458 1 0.850619 0.247855 0.245594
240 1 0.955979 0.155213 0.150558
459 1 0.900261 0.196153 0.204558
440 1 0.954349 0.149452 0.245419
460 1 0.946312 0.248079 0.245716
262 1 0.0478478 0.353859 0.146366
461 1 0.00375891 0.299644 0.202668
463 1 0.0997719 0.300804 0.201626
264 1 0.150034 0.353235 0.145273
465 1 0.196132 0.30128 0.200039
246 1 0.249274 0.252088 0.15413
248 1 0.353856 0.252443 0.155072
266 1 0.253835 0.350404 0.150466
268 1 0.349814 0.352298 0.150925
467 1 0.298517 0.295008 0.194847
466 1 0.253331 0.347176 0.249027
468 1 0.348173 0.349889 0.247156
270 1 0.445579 0.350567 0.147371
469 1 0.404837 0.300838 0.203506
471 1 0.499513 0.304036 0.202771
470 1 0.444736 0.350075 0.244887
272 1 0.552046 0.346672 0.147657
473 1 0.586902 0.282273 0.20097
892 1 0.624531 0.346993 0.204346
254 1 0.646995 0.255348 0.147219
274 1 0.658729 0.350688 0.141708
475 1 0.698478 0.295695 0.202761
276 1 0.749065 0.351204 0.150135
476 1 0.749183 0.349605 0.245141
256 1 0.752489 0.252892 0.150275
278 1 0.850956 0.348055 0.150925
477 1 0.796032 0.300448 0.205178
456 1 0.752354 0.252265 0.246427
478 1 0.850514 0.353942 0.246114
260 1 0.945518 0.250045 0.150491
280 1 0.947455 0.349231 0.150913
479 1 0.900755 0.300993 0.205526
480 1 0.947758 0.351391 0.245591
282 1 0.0515283 0.447062 0.149943
481 1 0.002982 0.395804 0.202742
483 1 0.101288 0.396273 0.200638
284 1 0.147833 0.44925 0.146132
485 1 0.198377 0.39968 0.201268
505 1 0.202501 0.497276 0.199975
286 1 0.252526 0.446632 0.148106
288 1 0.349396 0.447478 0.151235
487 1 0.296661 0.403286 0.202813
486 1 0.253859 0.446128 0.246235
488 1 0.352481 0.44907 0.246775
290 1 0.445515 0.449228 0.15226
489 1 0.405487 0.397772 0.199744
292 1 0.549221 0.455377 0.149783
491 1 0.500631 0.398283 0.199284
493 1 0.590086 0.411263 0.200864
511 1 0.504532 0.495641 0.1958
294 1 0.652276 0.444634 0.148445
495 1 0.696824 0.403741 0.203479
494 1 0.64942 0.443343 0.246169
296 1 0.750793 0.446901 0.150963
298 1 0.850413 0.449703 0.152119
497 1 0.801203 0.398812 0.205722
496 1 0.754851 0.445936 0.245709
498 1 0.851313 0.452111 0.246539
300 1 0.947356 0.447205 0.152036
499 1 0.89915 0.396822 0.204904
500 1 0.949684 0.450791 0.248375
302 1 0.0541375 0.545915 0.153508
501 1 0.0013266 0.502055 0.196164
503 1 0.0976192 0.501672 0.196889
521 1 0.000990452 0.596212 0.196238
523 1 0.0971944 0.597818 0.196432
304 1 0.152359 0.55189 0.151585
525 1 0.197959 0.593789 0.194858
306 1 0.247577 0.553615 0.150423
506 1 0.245874 0.552135 0.246984
308 1 0.351917 0.546956 0.152647
507 1 0.298099 0.501829 0.202917
527 1 0.302629 0.59826 0.203514
508 1 0.355193 0.548436 0.247881
310 1 0.451174 0.548666 0.154415
509 1 0.395785 0.504146 0.195593
529 1 0.399328 0.602293 0.197301
531 1 0.496327 0.603843 0.197686
312 1 0.549921 0.549175 0.150586
513 1 0.60272 0.500532 0.201208
533 1 0.603148 0.596282 0.202085
314 1 0.645714 0.552908 0.146807
515 1 0.698787 0.5003 0.203444
535 1 0.699273 0.594939 0.201869
514 1 0.648052 0.555439 0.24636
316 1 0.754085 0.544952 0.152255
318 1 0.850517 0.548974 0.153671
517 1 0.79575 0.502928 0.196874
537 1 0.797714 0.600564 0.197018
518 1 0.850801 0.549823 0.249845
320 1 0.945909 0.547113 0.153533
519 1 0.904116 0.502556 0.196231
539 1 0.897501 0.602058 0.195869
520 1 0.946262 0.547812 0.249672
322 1 0.0482793 0.653779 0.151643
543 1 0.103986 0.700976 0.204167
342 1 0.0495234 0.747174 0.150854
522 1 0.048404 0.652135 0.247453
542 1 0.0486571 0.747699 0.248023
324 1 0.151531 0.650419 0.150662
545 1 0.199606 0.700636 0.205347
524 1 0.148618 0.646321 0.246026
526 1 0.24605 0.645413 0.246213
326 1 0.250738 0.650719 0.151582
328 1 0.347555 0.654262 0.150275
547 1 0.299774 0.699651 0.206944
346 1 0.252034 0.748541 0.149191
348 1 0.350462 0.748104 0.149065
528 1 0.347503 0.65493 0.24568
330 1 0.447357 0.654479 0.150128
549 1 0.402142 0.699856 0.207198
551 1 0.498457 0.698184 0.20437
530 1 0.455094 0.644454 0.246068
332 1 0.552738 0.652297 0.150107
553 1 0.594707 0.697283 0.20344
352 1 0.550454 0.749461 0.150242
532 1 0.552628 0.651923 0.245929
552 1 0.554398 0.748837 0.244529
334 1 0.648892 0.651948 0.151498
555 1 0.704146 0.697624 0.195708
336 1 0.745649 0.653072 0.153634
354 1 0.648767 0.747826 0.152899
356 1 0.744721 0.748351 0.153803
534 1 0.650537 0.653934 0.248718
554 1 0.650882 0.749564 0.248261
556 1 0.745458 0.748505 0.249161
338 1 0.85428 0.64882 0.152906
557 1 0.802602 0.702305 0.200639
358 1 0.851987 0.747891 0.144913
558 1 0.845161 0.74534 0.249689
541 1 0.995001 0.701907 0.203143
340 1 0.950922 0.653463 0.14994
559 1 0.896663 0.703207 0.202209
360 1 0.951131 0.746473 0.149456
540 1 0.952215 0.651638 0.24743
560 1 0.953488 0.747069 0.247587
362 1 0.0553059 0.848442 0.145134
563 1 0.0962766 0.802199 0.200428
344 1 0.149832 0.750546 0.148929
364 1 0.15132 0.848922 0.146635
565 1 0.202375 0.795295 0.203913
366 1 0.245592 0.847361 0.148578
544 1 0.1452 0.751831 0.244711
368 1 0.349438 0.844104 0.155763
567 1 0.298992 0.805787 0.196675
546 1 0.252477 0.752792 0.245078
548 1 0.350639 0.763604 0.235772
350 1 0.44898 0.75043 0.148373
370 1 0.455589 0.846416 0.149371
569 1 0.400792 0.805889 0.19685
571 1 0.499127 0.804763 0.198571
550 1 0.445947 0.751618 0.243816
372 1 0.550259 0.845443 0.150221
573 1 0.59761 0.805272 0.197636
572 1 0.551703 0.844875 0.244558
374 1 0.64673 0.843772 0.152867
575 1 0.702978 0.804388 0.195765
376 1 0.754467 0.845444 0.146226
378 1 0.850619 0.852605 0.144801
577 1 0.802052 0.800508 0.200512
561 1 0.999179 0.80454 0.199338
380 1 0.9456 0.850226 0.144728
579 1 0.899101 0.799865 0.200957
401 1 0.00295125 0.993923 0.197049
403 1 0.101011 0.995517 0.201517
382 1 0.0519866 0.955519 0.150813
581 1 0.000342912 0.898492 0.199363
583 1 0.0954833 0.898818 0.199468
582 1 0.0527055 0.954568 0.248025
384 1 0.148607 0.945186 0.150676
585 1 0.201987 0.902194 0.198897
386 1 0.24501 0.943725 0.153311
584 1 0.150934 0.946534 0.248814
407 1 0.297158 0.99618 0.197085
388 1 0.35348 0.955845 0.155859
587 1 0.301604 0.899918 0.197178
409 1 0.40316 0.99489 0.199116
390 1 0.450927 0.955788 0.147728
589 1 0.40062 0.900884 0.196131
591 1 0.499301 0.901555 0.20014
411 1 0.501235 0.999206 0.201571
413 1 0.597823 0.997684 0.200219
392 1 0.549751 0.951721 0.144783
593 1 0.602489 0.900956 0.198859
415 1 0.699715 0.993634 0.198594
394 1 0.646946 0.953785 0.14554
595 1 0.70008 0.89962 0.197171
417 1 0.795905 0.993686 0.197428
396 1 0.753269 0.954766 0.147483
398 1 0.850334 0.949505 0.145141
597 1 0.79631 0.897937 0.198551
400 1 0.946375 0.95273 0.149889
599 1 0.90252 0.896651 0.199738
602 1 0.0523642 0.0546482 0.34716
623 1 0.102 0.0957221 0.302271
604 1 0.147402 0.0556282 0.34841
605 1 0.20015 0.00119112 0.30268
625 1 0.199647 0.0959508 0.301841
606 1 0.252288 0.0542241 0.345317
607 1 0.295515 0.00131937 0.303376
608 1 0.352764 0.0449564 0.345014
627 1 0.29793 0.0977027 0.303887
609 1 0.399548 0.00698743 0.299237
610 1 0.450997 0.0434639 0.350478
629 1 0.40305 0.100888 0.303825
611 1 0.499344 0.00525582 0.293679
412 1 0.552915 0.0478677 0.253455
612 1 0.549699 0.0468507 0.350731
613 1 0.596245 0.00479046 0.296084
631 1 0.500316 0.0998662 0.299223
633 1 0.599759 0.100366 0.298362
414 1 0.65452 0.0476014 0.250248
614 1 0.648795 0.0450102 0.347586
615 1 0.702141 0.00648855 0.294461
635 1 0.698886 0.102967 0.302349
418 1 0.846926 0.0452177 0.250428
616 1 0.750313 0.0455011 0.347248
617 1 0.799015 0.0051464 0.30434
618 1 0.847113 0.0443695 0.347801
637 1 0.802547 0.101881 0.302542
621 1 0.99669 0.102027 0.303452
619 1 0.902987 0.00547358 0.303016
620 1 0.949525 0.0466623 0.345263
639 1 0.900117 0.101764 0.302763
622 1 0.0523285 0.150159 0.352231
641 1 3.03123e-05 0.201839 0.299319
643 1 0.098579 0.204259 0.297543
642 1 0.0532973 0.246326 0.353443
624 1 0.14918 0.151018 0.352524
645 1 0.195492 0.203185 0.297378
626 1 0.247949 0.152524 0.345702
444 1 0.155423 0.246386 0.252302
644 1 0.15178 0.246648 0.350506
646 1 0.249849 0.249338 0.346891
426 1 0.250799 0.150971 0.250654
628 1 0.346162 0.152717 0.344642
647 1 0.303428 0.197744 0.303772
446 1 0.252097 0.248739 0.251022
448 1 0.347786 0.249752 0.250382
648 1 0.345521 0.249587 0.347283
630 1 0.454469 0.152455 0.35036
649 1 0.400535 0.197832 0.303311
651 1 0.4953 0.197496 0.304326
650 1 0.453649 0.246625 0.348044
632 1 0.550633 0.153561 0.353844
653 1 0.602735 0.195867 0.296455
452 1 0.548091 0.248096 0.255029
652 1 0.552302 0.248825 0.351079
434 1 0.654698 0.143895 0.251377
634 1 0.645633 0.153853 0.353846
655 1 0.700857 0.198673 0.299346
636 1 0.751834 0.153604 0.353238
638 1 0.849052 0.154715 0.355733
657 1 0.797891 0.198145 0.301196
640 1 0.955086 0.154502 0.35599
659 1 0.900947 0.196612 0.300648
462 1 0.0462255 0.35637 0.252089
661 1 0.00225512 0.299163 0.298409
662 1 0.0520838 0.355017 0.352242
663 1 0.0990282 0.299778 0.297154
464 1 0.154271 0.354055 0.255341
664 1 0.151337 0.353547 0.351113
665 1 0.195735 0.301461 0.296098
666 1 0.249253 0.346105 0.350513
667 1 0.303493 0.303645 0.302959
668 1 0.345201 0.346476 0.345964
669 1 0.401823 0.301549 0.30122
670 1 0.453497 0.35383 0.351724
671 1 0.497253 0.30243 0.298966
472 1 0.553291 0.348469 0.255882
672 1 0.550815 0.352518 0.352505
673 1 0.597828 0.30254 0.29508
454 1 0.645911 0.254285 0.255928
474 1 0.662892 0.350973 0.267963
654 1 0.646871 0.251423 0.351245
674 1 0.647581 0.347374 0.352311
675 1 0.704891 0.296708 0.302748
656 1 0.744917 0.251971 0.354465
676 1 0.74337 0.347454 0.352245
658 1 0.851817 0.250107 0.354564
677 1 0.80003 0.302624 0.300999
678 1 0.850728 0.346896 0.356413
660 1 0.947386 0.250546 0.354171
679 1 0.896677 0.301812 0.300012
680 1 0.947855 0.345412 0.353408
482 1 0.0495427 0.451079 0.251759
682 1 0.0520691 0.449853 0.346104
683 1 0.102229 0.395616 0.29622
484 1 0.146841 0.45241 0.253096
684 1 0.147779 0.450578 0.350104
685 1 0.201024 0.399204 0.296076
686 1 0.244547 0.451965 0.353267
705 1 0.20458 0.496694 0.297445
687 1 0.299799 0.402272 0.301001
688 1 0.354757 0.453383 0.347507
490 1 0.449109 0.454805 0.250611
689 1 0.399636 0.397675 0.303474
690 1 0.451451 0.454033 0.345435
691 1 0.498881 0.397591 0.29755
709 1 0.394687 0.498055 0.302607
492 1 0.544154 0.455877 0.252665
692 1 0.546702 0.451507 0.346373
693 1 0.597751 0.401591 0.296274
711 1 0.503885 0.495889 0.304793
694 1 0.644983 0.446062 0.354935
695 1 0.703348 0.404019 0.301518
715 1 0.698934 0.499791 0.298882
696 1 0.753217 0.453441 0.356139
697 1 0.800333 0.399006 0.301607
698 1 0.848645 0.454141 0.353261
717 1 0.795132 0.497349 0.301198
681 1 0.997696 0.395057 0.299351
699 1 0.89775 0.39767 0.30114
700 1 0.954533 0.452229 0.34638
502 1 0.0530389 0.54775 0.251953
702 1 0.0533611 0.545249 0.346929
703 1 0.0969182 0.505021 0.297268
721 1 0.000219062 0.59976 0.303719
723 1 0.0970231 0.603348 0.303197
504 1 0.149713 0.549714 0.25108
704 1 0.149507 0.546864 0.348863
725 1 0.202943 0.604735 0.301287
706 1 0.244502 0.548621 0.352024
707 1 0.298901 0.500895 0.299787
708 1 0.355761 0.548965 0.351572
727 1 0.300914 0.599044 0.299378
510 1 0.450895 0.548744 0.251735
710 1 0.450349 0.549867 0.346063
729 1 0.396158 0.605031 0.300717
512 1 0.54522 0.548209 0.250116
712 1 0.545888 0.548453 0.346533
713 1 0.603413 0.500638 0.298821
731 1 0.503747 0.605356 0.303248
733 1 0.601939 0.597309 0.299705
714 1 0.645926 0.551677 0.354808
735 1 0.698202 0.594605 0.298236
516 1 0.755551 0.553085 0.251296
716 1 0.75364 0.552433 0.352865
718 1 0.84848 0.551135 0.34737
737 1 0.795372 0.596559 0.298096
701 1 0.99713 0.502173 0.303409
719 1 0.90271 0.500242 0.304559
720 1 0.944943 0.548963 0.345151
739 1 0.904023 0.599474 0.303898
722 1 0.04663 0.653722 0.3451
743 1 0.103522 0.699092 0.301391
724 1 0.154102 0.646312 0.354162
745 1 0.197896 0.701435 0.300462
726 1 0.250895 0.646695 0.357304
728 1 0.348539 0.652485 0.352623
747 1 0.278944 0.686646 0.298574
910 1 0.342061 0.726644 0.301055
730 1 0.454294 0.643537 0.353872
749 1 0.408424 0.698274 0.300904
732 1 0.549589 0.646408 0.350198
751 1 0.500104 0.70239 0.300181
753 1 0.596299 0.702226 0.301413
734 1 0.655025 0.652011 0.348718
755 1 0.69674 0.699324 0.305705
536 1 0.748196 0.651941 0.251296
754 1 0.652918 0.748065 0.344873
756 1 0.748205 0.746452 0.346617
538 1 0.848923 0.646845 0.250489
736 1 0.750458 0.64926 0.350188
738 1 0.846524 0.646867 0.35097
757 1 0.804366 0.704162 0.298465
758 1 0.854732 0.747696 0.355163
741 1 0.99939 0.695504 0.303691
740 1 0.951336 0.655112 0.345882
759 1 0.898238 0.703044 0.298852
562 1 0.0532394 0.845668 0.254749
742 1 0.0472909 0.752671 0.35183
762 1 0.047988 0.847703 0.351692
763 1 0.098831 0.798483 0.296844
564 1 0.151203 0.851106 0.252268
744 1 0.144181 0.75484 0.354364
764 1 0.149542 0.85 0.350245
765 1 0.19932 0.795107 0.299642
566 1 0.247879 0.850987 0.251506
766 1 0.247964 0.850595 0.349958
568 1 0.350969 0.85222 0.253731
746 1 0.251394 0.753667 0.354147
748 1 0.351311 0.765227 0.366047
767 1 0.295714 0.797498 0.300162
768 1 0.350723 0.852801 0.34722
570 1 0.445922 0.851104 0.252502
750 1 0.444284 0.7532 0.349568
769 1 0.40399 0.794933 0.302138
770 1 0.447136 0.854961 0.348645
752 1 0.554988 0.755179 0.350887
771 1 0.500309 0.79756 0.301232
772 1 0.55089 0.854047 0.349578
773 1 0.595593 0.798694 0.30327
574 1 0.649866 0.844849 0.250398
774 1 0.6503 0.854799 0.347419
775 1 0.703917 0.802609 0.302564
576 1 0.744729 0.845193 0.253337
776 1 0.747787 0.854096 0.348284
578 1 0.849434 0.856241 0.25286
777 1 0.802049 0.79912 0.300865
778 1 0.854028 0.853558 0.350293
761 1 0.998844 0.803273 0.294605
580 1 0.946832 0.853989 0.253709
760 1 0.951929 0.752182 0.354007
779 1 0.897667 0.799202 0.297069
780 1 0.950946 0.849249 0.352304
601 1 0.00188387 0.997831 0.304368
603 1 0.102197 0.999644 0.302378
782 1 0.0505202 0.945299 0.347544
783 1 0.0965098 0.90405 0.302131
784 1 0.15206 0.944994 0.347294
785 1 0.198155 0.904023 0.302544
586 1 0.249653 0.946352 0.251755
588 1 0.349902 0.949666 0.253031
786 1 0.253869 0.945921 0.347819
787 1 0.29345 0.905305 0.297714
788 1 0.351512 0.94848 0.34954
590 1 0.447073 0.948116 0.255793
789 1 0.400709 0.899588 0.292146
790 1 0.443558 0.949058 0.351506
592 1 0.5524 0.949077 0.254146
791 1 0.502768 0.894753 0.295271
792 1 0.515248 0.951441 0.341825
793 1 0.596408 0.897274 0.294439
1092 1 0.585166 0.949218 0.35567
594 1 0.648699 0.95126 0.254684
794 1 0.657069 0.949915 0.347445
795 1 0.703429 0.896392 0.292545
796 1 0.749677 0.949918 0.350063
596 1 0.75234 0.951061 0.254365
598 1 0.851044 0.950902 0.251842
797 1 0.800321 0.895084 0.294851
798 1 0.849143 0.94956 0.347231
781 1 0.999843 0.900024 0.295223
600 1 0.946242 0.953023 0.250099
799 1 0.901713 0.895631 0.295947
800 1 0.946346 0.949887 0.347044
801 1 0.000384882 0.00121727 0.399265
802 1 0.0533529 0.0526663 0.454562
823 1 0.0968523 0.0943016 0.396989
1021 1 0.000753465 0.109062 0.488734
804 1 0.149192 0.0534231 0.454101
805 1 0.199711 0.000919887 0.397783
825 1 0.203921 0.0964621 0.399292
806 1 0.245576 0.0488776 0.455453
1025 1 0.204364 0.103707 0.49608
807 1 0.297514 0.00333503 0.399886
808 1 0.352006 0.0441937 0.453125
827 1 0.301396 0.0999953 0.401572
1007 1 0.303282 0.00389099 0.49669
1027 1 0.301528 0.101671 0.497242
809 1 0.395977 0.00533079 0.403422
810 1 0.450221 0.0451685 0.447205
829 1 0.398622 0.101295 0.400404
831 1 0.496397 0.100363 0.399887
1029 1 0.399093 0.0982754 0.498118
1031 1 0.495368 0.0971441 0.497764
811 1 0.504369 0.00397139 0.403839
812 1 0.546764 0.0494412 0.446938
813 1 0.602176 0.00363481 0.405608
833 1 0.602954 0.0980905 0.399809
1033 1 0.601954 0.0957388 0.498255
814 1 0.652132 0.0572292 0.454281
815 1 0.697897 0.00322024 0.404108
835 1 0.699949 0.10094 0.399866
1035 1 0.698363 0.0970468 0.497008
816 1 0.752485 0.0527175 0.453813
817 1 0.803648 0.003984 0.400931
818 1 0.848205 0.0534856 0.455723
837 1 0.800115 0.10048 0.397656
1037 1 0.796511 0.0981137 0.4946
821 1 0.996698 0.0974945 0.398991
819 1 0.901526 0.00361406 0.401295
820 1 0.949777 0.0495005 0.455264
839 1 0.900695 0.0989731 0.398371
1039 1 0.906129 0.101464 0.496314
822 1 0.0528484 0.150134 0.447394
843 1 0.0970866 0.205143 0.398903
842 1 0.052548 0.245114 0.447881
824 1 0.147431 0.148697 0.448757
845 1 0.204102 0.202125 0.404126
826 1 0.243472 0.147497 0.450988
844 1 0.150161 0.244327 0.446843
828 1 0.351516 0.153298 0.453828
847 1 0.302008 0.197146 0.402182
1047 1 0.298447 0.198123 0.49738
830 1 0.4541 0.152034 0.454944
849 1 0.398885 0.196598 0.398827
851 1 0.495469 0.196365 0.39753
850 1 0.451759 0.248042 0.453648
1049 1 0.396162 0.194571 0.496098
832 1 0.550295 0.152866 0.451561
853 1 0.604577 0.19516 0.402128
852 1 0.549327 0.248183 0.449177
1051 1 0.502276 0.192864 0.496536
834 1 0.646211 0.152473 0.451196
855 1 0.701942 0.197749 0.397747
854 1 0.647464 0.249029 0.446147
836 1 0.753357 0.149549 0.454227
838 1 0.849419 0.152457 0.453466
857 1 0.797092 0.196286 0.396067
856 1 0.755244 0.247228 0.452066
841 1 0.997948 0.201186 0.395856
840 1 0.945637 0.156876 0.450405
859 1 0.900194 0.195052 0.396592
861 1 0.00440316 0.300422 0.401501
862 1 0.0458929 0.353795 0.449269
863 1 0.100202 0.300188 0.404169
864 1 0.154377 0.35179 0.446551
865 1 0.197991 0.297753 0.403206
846 1 0.246367 0.251597 0.442784
866 1 0.249521 0.350148 0.447835
1065 1 0.197755 0.296999 0.499687
848 1 0.353407 0.252284 0.455441
867 1 0.302789 0.295613 0.398415
868 1 0.346936 0.348332 0.452603
1067 1 0.294558 0.294315 0.494624
869 1 0.400601 0.30176 0.397361
870 1 0.454962 0.340531 0.446485
871 1 0.495854 0.301456 0.397856
1069 1 0.402805 0.302024 0.494189
1071 1 0.497142 0.302211 0.496413
872 1 0.551332 0.344318 0.446259
873 1 0.595773 0.303487 0.405687
874 1 0.647433 0.352635 0.448631
875 1 0.70411 0.29794 0.398805
858 1 0.851454 0.250174 0.450888
876 1 0.75293 0.353607 0.449206
877 1 0.799019 0.30231 0.396353
878 1 0.851205 0.349098 0.452556
860 1 0.945964 0.251793 0.449846
879 1 0.897131 0.301903 0.393959
880 1 0.947167 0.348024 0.451089
882 1 0.0649256 0.456906 0.482451
883 1 0.0992314 0.394967 0.403071
890 1 0.0357145 0.441825 0.419219
1081 1 0.00232211 0.395233 0.496595
884 1 0.149342 0.451118 0.446067
885 1 0.195158 0.394773 0.399115
886 1 0.246261 0.447277 0.449495
887 1 0.30306 0.402862 0.398369
888 1 0.339553 0.445987 0.450564
907 1 0.300906 0.499543 0.397933
1087 1 0.298584 0.402756 0.495013
1107 1 0.300894 0.499009 0.495129
889 1 0.398783 0.397859 0.398671
891 1 0.499059 0.39391 0.391691
909 1 0.390851 0.496786 0.394373
1089 1 0.394083 0.387309 0.493234
2001 3 0.45155 0.451359 0.493582
893 1 0.601145 0.404491 0.401827
1093 1 0.609036 0.391782 0.499193
894 1 0.657506 0.44858 0.449606
895 1 0.696752 0.403661 0.397945
915 1 0.697779 0.49928 0.394538
896 1 0.75234 0.450797 0.452065
897 1 0.801824 0.399157 0.395467
898 1 0.848268 0.446465 0.450717
917 1 0.803695 0.496142 0.395905
881 1 0.990999 0.391919 0.392281
899 1 0.898933 0.402838 0.396417
900 1 0.951096 0.445035 0.452792
902 1 0.0538139 0.544456 0.451338
903 1 0.0969178 0.504271 0.405729
921 1 3.50638e-05 0.59906 0.399502
923 1 0.0966741 0.601351 0.40036
1121 1 0.00178572 0.599716 0.495613
1123 1 0.0992148 0.600726 0.499567
904 1 0.152763 0.549685 0.447693
905 1 0.205496 0.500949 0.396218
925 1 0.193163 0.600922 0.399002
906 1 0.248296 0.553614 0.450351
908 1 0.350762 0.555667 0.451759
927 1 0.301297 0.5951 0.394928
929 1 0.395087 0.607812 0.395507
2004 3 0.444366 0.552204 0.436125
913 1 0.606005 0.500321 0.391957
931 1 0.505828 0.608215 0.395266
933 1 0.601355 0.597264 0.3961