ITEM: TIMESTEP
100
ITEM: NUMBER OF ATOMS
16060
ITEM: BOX BOUNDS pp pp pp
0.0000000000000000e+00 7.1120000000000005e+01
0.0000000000000000e+00 7.1120000000000005e+01
0.0000000000000000e+00 7.1120000000000005e+01
ITEM: ATOMS id type f_avepos[1] f_avepos[2] f_avepos[3]
2 1 1.52391 1.89243 1.75449
43 1 3.55433 3.8313 0.23512
803 1 3.97406 0.350481 3.70272
843 1 4.03068 3.66085 3.24381
4 1 5.6415 1.65093 1.40308
845 1 7.16659 3.4342 3.36183
6 1 8.52931 1.85686 2.08189
7 1 10.4632 0.206888 0.414427
8 1 12.1801 1.53208 2.14542
47 1 10.4828 3.29852 0.202261
847 1 10.3515 3.93601 3.69783
10 1 15.3901 1.67354 1.85703
49 1 14.4217 3.74703 0.138168
849 1 13.8755 3.08315 3.22992
12 1 19.8608 1.95615 1.97583
51 1 18.1845 3.83989 0.610868
851 1 17.7315 3.81663 3.30198
14 1 22.9322 1.61189 1.66237
55 1 24.5451 3.83136 0.393327
815 1 25.0106 0.0710175 3.53812
853 1 21.1322 3.21539 3.68261
855 1 24.5653 3.42934 3.25421
15 1 25.1791 0.380662 0.394951
16 1 26.9092 1.51827 1.65079
817 1 28.3962 0.0638809 3.82198
857 1 28.5492 3.92061 3.43171
18 1 30.2571 2.10392 2.17163
19 1 31.9477 0.184452 0.284586
819 1 31.8328 0.0434849 3.85972
859 1 32.31 3.68459 3.68478
20 1 34.0053 1.79693 2.05253
22 1 37.5022 1.72079 1.79954
861 1 35.6458 3.45964 3.88414
24 1 40.7026 2.05481 1.86835
63 1 39.2883 3.32254 0.285514
863 1 39.0271 3.74886 3.69432
26 1 44.0277 1.33508 1.83582
825 1 42.8364 0.277911 3.89239
865 1 42.9858 3.27176 3.65818
28 1 48.0792 2.07265 1.37744
69 1 50.0786 3.2551 0.200158
829 1 49.6058 0.165988 3.61504
867 1 46.0795 3.41902 3.15934
869 1 49.6356 3.47548 3.67367
30 1 51.4284 1.88337 1.71845
831 1 53.6957 0.15847 3.2499
871 1 53.4935 3.24254 3.94364
32 1 54.7185 1.6114 1.5741
833 1 56.5905 0.449353 3.13137
873 1 57.0858 3.99107 3.48609
34 1 59.0395 2.09145 1.97784
36 1 62.3713 2.21186 1.51296
835 1 60.1565 0.377129 3.19856
875 1 60.6022 3.55106 3.8843
38 1 65.6804 1.6302 1.65228
877 1 64.4032 3.65319 3.7243
801 1 -0.19961 0.240902 3.10074
841 1 -0.109045 3.16313 3.69446
40 1 69.3053 2.13766 1.36894
79 1 67.3457 3.66715 0.103735
879 1 67.6657 3.3552 3.53939
42 1 1.69142 5.07084 1.79633
81 1 0.357754 7.46487 0.124752
83 1 3.57742 7.06575 0.0475262
883 1 3.68226 7.16254 3.48352
44 1 5.22813 5.12983 1.86327
85 1 7.24767 5.387 0.280127
885 1 6.68878 6.81727 3.73016
46 1 8.96983 5.19473 1.87299
48 1 12.0353 4.92531 2.0288
887 1 10.4701 7.06181 3.90785
50 1 15.7757 5.59347 2.17154
889 1 13.7963 7.21084 3.58769
52 1 19.2249 5.62697 2.33852
891 1 17.6589 7.39559 3.42792
54 1 22.8443 5.50371 2.21217
95 1 24.5677 7.26321 0.349978
893 1 21.2196 7.36779 3.78756
895 1 25.243 6.89082 3.44677
56 1 26.8958 5.25442 1.97491
97 1 28.0942 7.44389 0.175319
897 1 28.1057 7.38405 3.80967
58 1 30.5426 5.16099 1.9481
99 1 32.1219 7.48694 0.132499
899 1 32.2059 7.44027 3.97447
60 1 33.6785 5.3735 1.83446
62 1 37.2952 5.73139 1.92732
101 1 35.8602 7.25371 0.203262
901 1 35.5645 6.94792 3.84073
64 1 41.0478 5.27308 1.7931
103 1 39.0689 7.18692 0.0693357
903 1 39.1727 7.41492 3.79093
66 1 44.8334 5.0173 1.88434
105 1 43.0893 7.22569 0.294247
905 1 42.4849 7.02974 3.34556
68 1 48.2871 5.4506 1.8681
109 1 49.717 7.19961 0.0438918
907 1 46.5413 6.89354 3.23898
909 1 49.584 7.23916 3.89635
70 1 51.6483 5.55229 1.67514
111 1 53.0172 7.36889 0.364666
911 1 53.4158 6.93806 3.3526
72 1 54.8861 5.5856 1.65547
113 1 56.5589 7.05806 0.0926151
913 1 56.6649 6.86178 3.44635
74 1 58.6531 4.95312 1.89509
76 1 61.8337 5.42912 2.08614
115 1 60.2329 7.3557 0.33702
915 1 60.5412 7.09625 3.27786
78 1 66.2312 5.00225 1.83197
117 1 63.9444 4.92153 0.787762
917 1 64.3944 7.32473 3.54389
881 1 -0.0943575 7.28931 3.48138
80 1 69.7908 5.02463 1.91285
919 1 67.2337 7.21187 3.61999
82 1 1.39431 8.70734 2.03586
122 1 1.98184 12.1001 1.82995
921 1 0.438971 10.7004 3.35089
923 1 3.59666 10.2706 3.59787
84 1 5.39137 8.76371 1.81577
125 1 6.85224 11.1448 0.397324
925 1 7.10521 10.7807 3.48656
86 1 8.76805 8.72273 1.87609
126 1 8.51527 12.4441 1.70315
127 1 10.9812 10.3379 0.359452
128 1 12.5385 12.2106 1.41003
927 1 10.3038 10.85 3.46875
88 1 12.8092 8.83531 1.48512
90 1 16.0507 9.23537 2.40325
130 1 15.7355 12.0277 1.76495
929 1 13.8172 10.9287 3.88198
15980 3 18.2471 8.73515 0.30624
92 1 19.9287 9.67204 2.52139
132 1 19.2472 12.1386 1.87576
931 1 17.9355 10.801 4.00007
94 1 23.1255 8.63108 1.80336
134 1 23.5247 12.3545 1.99066
135 1 24.9744 10.5104 0.0047481
933 1 21.3788 11.1114 3.7674
935 1 25.027 10.4201 3.81166
96 1 26.6331 9.38484 1.75831
137 1 28.8146 10.5172 0.0178507
937 1 28.1551 10.5314 3.7781
98 1 30.2222 8.50102 1.64986
139 1 31.8235 10.4148 0.188802
939 1 32.4331 10.8007 3.57311
100 1 33.868 9.0574 1.55681
102 1 36.8923 9.00505 1.98602
140 1 33.9724 12.3438 2.16042
142 1 37.2202 12.2939 1.99342
941 1 35.7081 10.9296 3.38379
104 1 41.0518 8.84004 1.69773
143 1 39.0202 10.5267 0.0238084
144 1 41.0646 12.3956 1.78708
943 1 38.9014 10.3135 3.97158
106 1 44.1768 8.73628 1.80428
146 1 44.7445 12.3194 1.63999
945 1 42.9936 10.6373 3.70607
108 1 47.8996 9.21282 1.49834
147 1 46.1107 10.5899 0.347366
148 1 48.2267 12.5307 1.6393
149 1 49.7864 10.3968 0.290999
947 1 46.5821 10.6613 3.80814
949 1 49.4943 10.3023 3.2082
110 1 51.7658 8.78045 1.84517
150 1 51.5263 12.4572 1.85605
951 1 53.2962 11.0345 3.7824
112 1 54.9757 9.04596 1.70615
152 1 55.0356 12.2303 1.78112
153 1 56.7698 10.365 0.00399541
953 1 57.0501 10.3519 3.4652
154 1 58.4722 12.1601 2.11246
114 1 58.8528 9.15405 1.33747
116 1 62.3471 8.72313 2.00776
156 1 62.5146 12.3535 1.98941
955 1 60.1233 10.2081 3.84176
118 1 66.2753 8.96344 1.99104
157 1 63.7647 11.2763 0.365457
957 1 64.3378 10.9575 3.57079
121 1 -0.304003 10.5644 0.12004
120 1 69.5777 9.25477 1.92869
159 1 67.393 10.351 0.0307257
160 1 69.352 12.3116 1.81162
959 1 67.4061 10.7239 3.21407
161 1 0.29313 14.2789 0.0690093
162 1 1.73108 16.1508 2.08907
163 1 3.63712 14.5001 0.136885
961 1 0.372863 13.9226 3.76606
963 1 3.6589 14.3397 3.16917
124 1 5.19951 12.6929 1.97946
164 1 5.45184 15.9976 2.14111
165 1 7.39312 14.4057 0.0545387
965 1 7.49514 14.3706 3.22546
166 1 9.20841 15.8417 2.05817
167 1 10.4531 14.1147 0.191553
168 1 12.3999 15.9247 1.98711
967 1 10.8283 14.4497 3.25063
170 1 15.9033 15.8753 1.37067
969 1 13.9211 14.4027 3.14121
171 1 17.808 14.0063 0.428398
172 1 19.8747 16.2388 2.07712
971 1 17.589 13.9459 3.53026
173 1 21.2308 14.2173 0.35344
174 1 23.1048 16.2035 2.05926
175 1 24.7088 14.0804 0.135795
973 1 21.3871 14.2711 3.41178
136 1 26.7746 12.5818 1.89551
975 1 25.1741 13.7469 3.31979
176 1 26.9068 16.0641 1.84185
177 1 28.8806 14.5966 0.243688
977 1 28.3966 14.0564 3.4053
138 1 30.707 12.6954 2.25645
178 1 29.9476 16.3287 1.6773
179 1 32.1811 13.9816 0.0933544
979 1 32.1101 14.3256 3.50896
180 1 34.0542 15.9432 1.85179
981 1 35.9537 14.4575 3.95985
182 1 37.8084 15.673 1.96542
184 1 40.6558 16.2549 1.79485
983 1 39.4287 14.1658 3.53201
186 1 44.4743 16.1967 2.02438
187 1 45.9774 13.8353 0.22484
987 1 45.899 14.5485 3.93007
227 1 45.7588 16.5764 0.113525
188 1 48.4153 16.3423 1.69784
189 1 49.9194 13.9828 0.272481
989 1 49.553 14.3989 3.16813
190 1 51.9947 15.8336 1.39771
191 1 53.5288 14.1012 0.0309836
991 1 52.9915 14.3683 3.35601
192 1 55.4861 16.1807 1.94098
993 1 56.939 14.4456 3.52476
194 1 58.749 16.1253 1.61957
196 1 62.5279 16.2639 1.8045
995 1 60.8401 14.5124 3.25859
158 1 65.914 12.9883 1.64607
198 1 65.8982 16.193 1.5458
997 1 64.0223 14.4394 3.28636
199 1 67.6153 14.4035 0.146449
200 1 69.315 16.2105 1.83757
999 1 67.5484 14.4039 3.4073
202 1 2.25548 19.5947 2.69757
203 1 3.49236 17.5536 0.0290174
1001 1 0.191317 17.7491 3.61986
1003 1 3.48765 17.5361 3.45917
16035 3 1.63258 18.756 0.0110659
204 1 5.47046 19.5759 2.08278
1005 1 7.33828 17.7037 3.17928
206 1 9.17511 19.6268 1.52005
207 1 10.3518 17.8646 0.337189
1007 1 10.6591 17.7468 3.89402
208 1 12.7091 19.314 2.0723
210 1 15.9401 19.2216 1.9391
1009 1 14.5211 17.74 3.3025
212 1 19.2305 19.7664 2.03857
1011 1 17.5874 18.0867 3.32338
213 1 21.4036 18.2127 0.42942
214 1 23.3132 19.7224 1.49109
1013 1 21.4861 17.6154 3.38281
1015 1 24.592 17.7745 3.18256
216 1 26.616 19.9231 1.64748
1017 1 28.5253 17.4621 4.01235
218 1 30.0248 19.3245 1.93958
219 1 31.6014 17.6609 0.196342
1019 1 31.7248 17.576 3.30408
220 1 33.3173 19.7586 1.98605
221 1 35.744 17.4976 0.427259
1021 1 35.3415 18.0926 3.7673
222 1 37.6832 19.3125 1.64399
223 1 39.016 18.0176 0.0650046
224 1 40.642 19.3218 2.17175
1023 1 38.8741 17.5594 3.52836
226 1 44.5994 19.496 1.9431
1025 1 42.9517 17.3699 3.78325
228 1 48.3468 19.7507 1.99831
229 1 50.062 17.8453 0.133902
1027 1 46.6159 18.0254 3.77537
1029 1 50.0394 17.5982 3.21062
230 1 51.4385 19.4617 2.16235
1031 1 53.6033 17.6106 3.47683
232 1 54.6856 19.3138 2.19946
233 1 57.3388 17.8162 0.295033
1033 1 57.0471 17.5162 3.29638
234 1 58.6954 19.8652 2.18022
236 1 62.4213 19.3366 1.89477
1035 1 60.2538 17.527 3.37582
238 1 65.427 19.3685 1.34645
1037 1 63.7503 18.0604 3.87603
1079 1 66.2156 19.8165 3.32479
240 1 68.9083 18.9885 2.13258
1039 1 67.4791 17.9891 3.85986
241 1 -0.869787 20.6311 0.789324
242 1 2.38454 22.9825 1.84567
243 1 3.22765 20.9906 0.115033
283 1 4.00158 24.6495 0.183523
1043 1 3.78734 21.6838 3.34752
1083 1 3.43237 24.6583 3.79426
244 1 5.59005 22.8908 2.01539
1045 1 6.77824 21.37 3.93745
1085 1 7.42615 24.8433 3.18687
246 1 8.83544 23.2217 1.85026
248 1 12.5316 22.812 2.00142
287 1 10.4062 24.8315 0.294988
1047 1 10.6144 21.6914 3.62353
1087 1 10.3343 24.7176 3.17853
250 1 15.6122 22.7602 1.63694
1049 1 14.4753 20.962 3.68709
1089 1 13.6892 25.0064 3.87728
252 1 19.7544 23.5213 1.80927
1051 1 17.6447 21.2377 3.73969
1091 1 17.1584 23.356 3.602
254 1 23.4705 22.9767 2.15091
255 1 24.7541 21.1323 0.0170076
293 1 21.0715 24.9555 0.0312664
1053 1 21.7125 21.4588 3.44679
1093 1 21.7012 24.7411 3.1362
1055 1 25.1697 21.1816 3.45729
256 1 26.4057 23.3531 2.16578
297 1 28.8616 24.8498 0.0412371
1057 1 28.7938 20.9974 3.50618
1097 1 28.7705 24.9579 4.02427
258 1 30.1848 22.8684 1.73917
259 1 31.6971 21.2669 0.008853
299 1 32.2241 24.8379 0.145969
1059 1 32.0155 21.7242 3.18743
1099 1 32.1045 24.7713 3.41367
260 1 33.8306 23.0505 1.45895
262 1 37.1211 23.3752 2.13074
301 1 35.3525 24.5654 0.0396983
1061 1 35.5146 21.0084 3.67188
264 1 41.0649 22.9219 1.91679
303 1 39.0556 24.8496 0.323856
1063 1 38.7813 21.6325 3.8634
1103 1 39.2314 25.0623 3.60057
265 1 42.9273 21.4017 0.00176131
266 1 44.4653 22.7161 2.17054
1065 1 43.11 21.2265 3.60297
1105 1 43.0336 24.6992 3.13761
307 1 45.899 24.8999 0.352727
1107 1 45.9419 24.6952 3.68234
268 1 47.8937 22.7625 1.4574
1067 1 46.5851 21.8172 3.75133
1069 1 49.6839 21.4552 3.91613
1109 1 49.8607 25.0679 3.18444
270 1 51.6797 22.7249 1.76946
271 1 53.1955 21.5603 0.317771
311 1 52.9156 24.756 0.147992
1071 1 53.6346 21.3973 3.90792
1111 1 53.4794 24.8903 3.3561
272 1 55.0603 23.5465 1.45574
273 1 57.2658 21.7593 0.149313
313 1 56.7607 24.7455 0.0898392
1073 1 57.1803 21.3763 3.25915
1113 1 57.2223 24.9359 3.30971
274 1 59.0275 23.2398 1.85435
276 1 62.3411 22.9733 1.6241
1075 1 60.41 21.3909 3.98427
278 1 65.8455 23.5072 1.38509
1077 1 63.5083 21.0833 3.92648
1117 1 63.9474 24.5558 3.53399
1041 1 -0.234475 21.0322 4.07834
279 1 67.3598 21.6604 0.0110839
280 1 69.6559 23.9249 1.26621
16009 3 68.4531 22.5052 3.1866
1081 1 0.0633351 25.1077 3.86227
282 1 1.81718 27.0442 2.13952
1123 1 3.7999 28.315 3.27991
285 1 7.42243 25.3673 0.0500477
284 1 5.28072 26.3621 2.15891
325 1 7.39937 28.4029 0.304427
1125 1 6.88884 28.4049 3.97347
286 1 8.54496 26.9605 1.84013
288 1 11.9718 26.5087 2.038
327 1 10.7833 28.7114 0.0565913
1127 1 10.8517 28.1955 3.84828
290 1 16.3189 26.916 2.97017
329 1 14.3366 28.5754 0.246084
1129 1 13.9719 28.5682 3.50094
15962 3 15.427 25.8879 0.466734
292 1 19.949 27.0138 1.22729
331 1 17.6352 28.6769 0.0557365
1131 1 17.8689 28.8001 3.31953
15975 3 19.2477 26.0158 4.01936
1095 1 24.5834 25.1024 3.92577
294 1 23.4188 26.8012 1.86515
1133 1 21.5325 28.0008 3.09541
1135 1 25.1579 28.1248 3.43944
296 1 26.9362 26.7895 2.03023
337 1 28.7126 28.007 0.247117
1137 1 28.6812 28.1114 3.40599
298 1 30.4478 26.8798 1.84399
1139 1 32.4028 28.7053 3.66682
300 1 33.6507 26.4701 1.85843
302 1 36.9825 26.4353 1.65865
341 1 35.1199 28.7195 0.00849117
1141 1 35.3335 28.4839 3.96457
304 1 40.8477 27.0162 1.57203
343 1 38.5962 28.3897 0.0624751
1143 1 39.4712 28.005 3.26286
306 1 45.0138 27.3269 2.10234
1145 1 42.9878 28.223 3.58507
15963 3 43.4713 26.5687 0.360526
309 1 49.4871 25.243 0.0122139
308 1 48.2126 26.2956 1.83571
347 1 46.0983 28.4575 0.235443
1147 1 46.1128 27.9862 3.88551
1149 1 49.7342 28.0939 3.86859
310 1 51.3952 26.6622 2.01807
351 1 53.2238 28.0456 0.387252
1151 1 53.1179 28.8074 3.82698
312 1 54.736 26.6826 2.09017
353 1 57.1309 28.3736 0.436896
1153 1 56.4445 28.3127 3.7594
314 1 58.5064 26.6565 2.1858
1115 1 60.4197 25.2662 3.72978
316 1 62.5688 27.0516 1.87826
1155 1 60.5526 28.3536 3.80318
318 1 65.6497 26.4424 2.02882
1157 1 64.2417 27.9741 3.92521
1119 1 67.7854 25.1308 3.93001
321 1 -0.163398 28.2831 0.142558
1121 1 -0.165782 28.2788 3.9448
320 1 69.4985 26.5973 1.64176
359 1 67.3944 28.4852 0.0205223
1159 1 67.6143 28.4796 3.31452
322 1 1.46446 30.1299 1.65017
1161 1 0.374832 31.5305 3.31219
1163 1 3.58148 31.804 3.46261
324 1 5.3698 29.9014 2.06191
365 1 7.37542 32.1091 0.0970577
1165 1 6.87596 32.0727 3.15347
326 1 8.51281 30.4126 1.39286
328 1 12.5361 29.887 1.99432
367 1 10.8077 32.0233 0.069314
1167 1 10.6726 31.6981 3.10543
330 1 16.3431 30.0049 1.86249
369 1 14.5389 31.8829 0.425339
1169 1 14.5746 31.6521 3.69723
332 1 19.5645 30.1046 1.48319
371 1 17.4079 32.1514 0.115728
1171 1 17.4446 32.3356 3.5398
334 1 23.0383 29.9502 2.19262
375 1 24.911 31.5615 0.157587
1173 1 21.1076 32.1026 3.45222
1175 1 24.5286 32.4045 3.29809
336 1 26.4865 29.8002 1.80974
377 1 28.193 32.1896 0.212793
1177 1 28.55 32.2254 3.34655
338 1 30.4576 30.002 2.02492
379 1 31.5732 31.9845 0.222055
1179 1 32.0397 32.2204 3.90907
340 1 34.1823 30.3975 1.56225
342 1 37.5815 29.8206 2.02913
381 1 35.5196 31.9345 0.26413
1181 1 35.4821 32.0291 3.97944
344 1 40.6136 30.063 1.88742
383 1 39.3124 32.3615 0.109492
1183 1 39.3044 32.1443 3.55315
346 1 44.6622 30.0488 1.50252
1185 1 42.4495 32.1649 3.66683
1187 1 45.9985 31.7103 3.44532
348 1 47.8127 29.9019 1.93263
389 1 49.8794 32.2115 0.406347
1189 1 49.4051 31.7932 3.29231
350 1 51.9888 29.849 1.50247
1191 1 53.4859 32.0048 3.94967
352 1 55.3376 30.1708 1.52425
393 1 57.0489 31.9661 0.226592
1193 1 57.3105 32.3861 3.50977
354 1 58.6438 30.0421 1.6104
356 1 62.7326 30.1766 1.42845
395 1 60.4794 32.3686 0.130812
1195 1 60.6698 32.3164 3.56947
358 1 66.0432 29.904 1.47761
397 1 64.4245 31.7624 0.429912
1197 1 63.6302 31.6765 3.4737
360 1 69.1257 30.4458 2.02285
1199 1 67.4747 31.6651 3.38182
362 1 1.53544 34.0094 1.43442
402 1 1.9534 36.9535 1.54996
1203 1 3.70831 35.7443 3.60149
364 1 4.9816 33.6988 1.38014
404 1 5.63051 36.9446 1.91904
405 1 6.82149 35.5355 0.2693
1205 1 7.1936 35.7476 3.5202
366 1 8.72317 33.7316 2.09918
406 1 8.90105 37.5024 2.12463
1207 1 10.2925 35.2513 3.41647
368 1 12.7709 34.1404 1.85038
408 1 12.7494 37.5287 2.08021
370 1 16.3263 33.721 1.71466
1209 1 14.6441 35.5328 3.60333
372 1 19.7374 34.0508 1.45484
411 1 17.9671 35.3981 0.329522
412 1 19.4566 36.9983 1.71809
1211 1 17.4983 35.3193 3.5286
374 1 23.2365 33.9392 1.56102
413 1 21.1234 35.8456 0.106445
414 1 22.6479 37.2197 1.51381
415 1 24.5363 35.348 0.039785
1213 1 21.7497 35.814 3.73225
1215 1 25.2239 35.5291 3.34682
376 1 26.969 33.4826 2.06611
416 1 26.761 37.4683 1.70295
1217 1 28.3876 35.313 3.9749
378 1 30.6204 33.9859 1.56202
418 1 29.8225 37.3654 2.07701
419 1 31.7654 35.3811 0.00464596
1219 1 32.3188 35.7331 3.3479
380 1 34.214 33.5639 1.5972
382 1 37.5061 33.8168 1.89068
420 1 33.6474 37.2391 1.90705
422 1 37.5381 37.3989 2.12185
1221 1 35.9016 35.5969 3.82032
384 1 40.6535 33.7167 1.56925
423 1 38.729 35.3078 0.404918
424 1 40.848 37.5887 1.44552
1223 1 39.3008 35.6763 3.79471
386 1 44.5569 34.1317 2.09037
426 1 44.2251 36.9989 1.62858
1225 1 42.7774 35.5913 3.20869
1227 1 46.0047 35.3907 3.58692
388 1 47.961 33.4761 1.55048
428 1 47.8843 37.1274 1.82612
1229 1 49.4942 35.5563 3.08723
390 1 51.555 33.583 1.55464
430 1 51.7124 37.3264 1.9724
1231 1 53.6003 35.3812 3.45159
392 1 54.8704 34.0037 1.79032
432 1 54.7774 37.1605 1.38036
1233 1 56.953 35.7039 3.63619
394 1 59.0033 33.7503 1.73759
396 1 62.2532 34.0787 1.60577
434 1 58.605 37.0917 2.07365
435 1 60.8676 35.9484 0.0716217
436 1 62.2602 37.2253 2.07923
1235 1 60.7215 35.1779 3.95103
398 1 66.0789 34.0763 1.77235
437 1 64.1247 35.4189 0.467156
438 1 65.8683 37.0637 1.95859
1237 1 63.716 35.7986 3.58858
1201 1 -0.152717 35.5302 3.1916
400 1 69.4134 33.7026 1.94852
439 1 67.2922 35.7135 0.43767
440 1 69.377 37.3768 2.22376
1239 1 67.2815 35.6368 3.75576
442 1 1.82647 41.2325 1.38246
443 1 3.50118 38.7505 0.0474391
1241 1 0.434924 39.3289 3.11496
1243 1 3.65235 38.8777 3.84767
444 1 5.0427 41.2108 1.92566
1245 1 7.5271 38.9779 3.66819
446 1 9.09507 40.6723 1.32659
447 1 10.5316 38.9756 0.416509
1247 1 11.0559 38.9953 3.72035
410 1 15.6241 37.6865 1.33374
448 1 12.71 40.6697 1.96222
450 1 15.9274 41.129 1.77359
1249 1 14.2064 38.9424 3.61913
451 1 18.0297 39.2809 0.314564
452 1 19.1473 41.186 1.44113
1251 1 17.8384 38.8918 3.87718
453 1 21.0013 39.2897 0.137692
454 1 23.1264 41.0729 1.84419
1253 1 20.931 39.4834 3.52499
1255 1 25.291 38.8838 3.87692
456 1 26.8676 40.7798 2.11927
1257 1 28.352 38.8632 3.315
458 1 30.3172 40.7439 1.47797
1259 1 32.2308 38.8073 3.56769
460 1 33.7531 40.5802 1.46125
461 1 35.5886 39.3629 0.296912
462 1 37.3552 40.942 1.94385
1261 1 35.5722 38.7979 3.6546
464 1 40.667 40.6391 2.03531
1263 1 39.2717 38.8346 3.13719
466 1 44.0967 41.1362 1.87694
1265 1 42.4638 38.8627 3.13264
467 1 46.1277 39.4947 0.0126862
468 1 47.6953 40.534 1.89011
1267 1 46.5362 38.7911 3.26349
1269 1 49.7259 39.2099 3.86176
470 1 51.6838 41.2939 1.98129
1271 1 52.9966 38.7542 3.53188
472 1 55.1252 40.5796 1.94599
1273 1 56.8968 39.2283 3.95169
474 1 58.9847 41.0036 1.76525
476 1 61.8554 41.1809 1.57841
1275 1 60.2716 38.8339 3.52415
478 1 65.8551 40.995 1.53109
1277 1 63.9535 39.0952 3.52055
479 1 67.5772 38.9075 0.0640975
480 1 69.0161 41.0044 2.12838
1279 1 67.5781 38.868 3.86707
482 1 1.75931 44.194 1.76141
1281 1 0.268749 42.6433 3.86138
1283 1 3.65481 42.9946 3.18358
484 1 5.14592 44.4062 1.85183
485 1 7.40353 42.3621 0.37474
1285 1 7.40398 43.1683 3.31332
486 1 9.21345 44.1887 1.80291
1287 1 10.5933 42.4999 3.06574
488 1 12.6066 44.8178 2.04622
490 1 16.3309 44.2108 1.55463
1289 1 13.9111 42.3288 3.92572
1329 1 14.5642 45.9775 3.27935
492 1 19.3484 44.5503 2.10417
1291 1 17.6626 42.3763 3.88294
1331 1 17.8344 45.8922 3.34662
494 1 23.4606 44.2072 1.38584
495 1 24.5094 42.2981 0.191327
1293 1 21.3794 42.7567 3.19844
535 1 24.7263 45.8519 0.160588
1295 1 25.1588 42.4933 3.2737
496 1 26.6898 44.5938 2.12204
1297 1 28.6269 42.606 3.66063
498 1 30.1893 44.7391 2.01552
1299 1 32.3229 42.8073 3.2759
500 1 33.4984 44.4572 2.02743
501 1 35.8784 42.89 0.329588
1301 1 35.7171 43.0471 3.57387
502 1 37.7564 44.9146 1.54102
503 1 38.9965 43.0512 0.225458
504 1 40.9918 44.4858 1.73424
1303 1 38.7083 42.9 3.2241
1343 1 39.0969 45.9917 3.59288
506 1 44.0505 44.5414 1.70344
1305 1 42.8861 42.4833 3.74133
547 1 45.9265 45.8624 0.116018
507 1 46.4784 42.8623 0.092797
508 1 48.0452 44.2914 1.44484
509 1 49.789 42.4221 0.28657
1307 1 46.5351 42.241 3.41339
1309 1 49.812 42.9396 3.22831
1347 1 46.3187 45.9766 3.75994
1349 1 49.5544 45.9182 3.41041
510 1 51.2954 44.5483 2.03749
511 1 53.3648 42.3718 0.278438
1311 1 53.2703 42.7286 3.62944
512 1 55.504 44.7338 1.57112
1313 1 56.6567 42.4977 3.61637
514 1 58.4561 44.1472 1.98307
516 1 61.7856 44.6944 1.45884
1315 1 60.3851 42.585 3.6975
1355 1 60.5133 46.0155 3.80082
518 1 65.4144 44.8 1.59665
1317 1 64.1622 43.1417 3.61358
519 1 67.5002 42.2936 0.225298
520 1 69.1543 44.1908 2.12674
1319 1 67.2265 42.7867 3.99711
521 1 -0.307369 45.8246 0.360622
522 1 2.05182 48.3542 2.07665
523 1 3.19329 46.5093 0.336087
563 1 3.93548 49.4486 0.101713
1323 1 3.74386 46.4231 3.23651
1363 1 3.17939 49.7411 3.79888
524 1 4.91141 48.2458 1.88925
525 1 6.74703 46.541 0.108088
565 1 7.46956 49.4559 0.427957
1325 1 6.91605 46.0475 3.57925
1365 1 6.4825 48.2033 3.6694
567 1 10.5024 49.8573 0.0919842
1327 1 11.1494 46.1581 3.43508
1367 1 10.3674 50.1771 3.25086
528 1 12.7636 48.1165 1.76642
529 1 14.3401 46.556 0.0535071
530 1 16.2354 47.7039 1.65217
569 1 14.5271 50.1167 0.0320895
1369 1 13.9702 49.888 3.43399
532 1 19.5061 48.2546 1.82627
1371 1 18.0745 49.9554 3.58828
534 1 23.3243 47.9898 1.60609
575 1 24.6528 49.6106 0.341717
1333 1 21.1886 46.1565 3.29337
1335 1 24.885 46.3266 3.40532
1373 1 21.1539 49.4203 3.22599
1375 1 25.247 49.839 3.62676
536 1 26.3854 47.7269 1.47284
577 1 28.4556 49.6772 0.237362
1337 1 28.4185 46.3081 3.16893
1377 1 28.4253 50.1773 3.78637
538 1 30.4411 48.0851 1.96967
539 1 31.9159 46.0974 0.361334
579 1 32.013 49.9778 0.271719
1339 1 31.7319 46.453 3.41557
1379 1 31.8281 49.5111 3.66801
540 1 33.8238 48.2451 1.5353
542 1 37.2725 48.1013 1.8034
581 1 35.2707 49.804 0.0340705
1341 1 35.843 46.2093 3.4773
1381 1 35.8146 49.5108 3.91572
543 1 39.1751 46.4752 0.373256
544 1 41.1431 48.4474 1.94149
1383 1 39.0675 50.1908 3.52379
546 1 44.049 47.5892 1.88178
585 1 42.9811 50.0963 0.0455781
1345 1 42.398 46.2792 3.82019
1385 1 43.0978 49.7227 3.1908
548 1 47.8751 47.9255 1.57476
549 1 49.639 46.5724 0.199817
587 1 46.3057 49.5774 0.339398
1387 1 46.6474 49.4229 3.39059
1389 1 50.1095 49.6511 3.70649
550 1 51.6718 47.9694 2.19737
1351 1 53.3909 46.2139 3.8691
1391 1 53.2129 49.4869 3.71304
552 1 54.9289 47.8932 2.13126
593 1 56.7782 49.5807 0.0575949
1353 1 56.9282 46.1716 3.50348
554 1 58.435 48.0363 1.75183
556 1 62.4492 47.7455 2.09467
1395 1 60.3075 49.8433 3.49948
557 1 63.9301 46.134 0.300474
558 1 66.1318 47.9655 1.42907
1357 1 63.9543 46.3397 3.73085
1397 1 64.3275 49.3625 3.28292
1321 1 -0.322595 46.3003 3.34761
1361 1 -0.267367 49.5052 3.78934
560 1 69.5692 48.1714 1.34404
599 1 67.4764 50.0528 0.325599
1359 1 67.6023 46.6476 3.3155
1399 1 67.6827 49.6033 3.38203
562 1 1.50758 51.3799 1.63945
603 1 3.70483 53.3753 0.247257
1403 1 3.91705 53.4157 3.86263
564 1 5.22348 51.7618 1.41589
605 1 7.29215 53.0835 0.269999
1405 1 6.97228 53.8537 3.6044
15981 3 7.88098 51.2868 3.35551
566 1 9.34265 52.1253 1.05035
607 1 11.0001 53.497 0.0401951
1407 1 10.5436 53.1754 3.91195
568 1 12.6148 51.4926 1.97326
570 1 16.0473 51.6651 1.71863
609 1 14.3734 53.5308 0.372841
1409 1 14.4988 53.6463 3.64774
572 1 19.9743 51.9367 1.25857
611 1 18.0238 53.2288 0.35861
1411 1 18.1238 53.1421 3.5091
574 1 23.0469 51.133 1.80666
1413 1 21.0536 53.5684 3.17539
1415 1 24.7257 53.3629 3.40868
615 1 25.1861 53.5673 0.443523
576 1 26.7671 51.616 2.15993
1417 1 28.6778 53.5416 3.26596
578 1 30.632 51.2686 2.06088
1419 1 32.383 52.9771 3.34044
580 1 34.1177 51.7737 1.57568
582 1 37.3463 51.1852 1.71957
621 1 35.4412 53.5585 0.189371
1421 1 35.6085 52.9488 3.68995
584 1 40.653 51.4783 1.89606
623 1 38.8466 53.6834 0.309745
1423 1 38.8105 53.4885 3.85988
586 1 44.1301 51.5186 1.87704
1425 1 42.7883 53.1615 3.63572
588 1 48.365 51.421 1.5584
629 1 49.3813 53.2235 0.2533
1427 1 46.57 53.3363 3.8925
1429 1 49.9587 52.9736 3.78039
590 1 51.5757 51.6536 2.23805
631 1 53.0155 53.6604 0.424483
1431 1 53.8066 53.155 3.98164
1393 1 56.4964 50.252 3.58499
592 1 54.9483 51.4008 2.02546
1433 1 57.2722 53.1698 3.79139
594 1 58.7793 51.2472 1.76275
596 1 62.5447 51.3385 1.96214
635 1 60.221 53.1088 0.426956
1435 1 60.2983 53.6975 3.79892
598 1 65.4247 51.1702 1.44237
1437 1 64.2278 53.1841 3.37318
601 1 -0.206346 53.447 0.158464
1401 1 -0.0922314 53.7437 3.4777
600 1 69.3355 51.2654 1.59349
639 1 67.1189 52.9677 0.0976589
1439 1 67.2668 52.9797 3.46177
602 1 1.41955 54.6045 1.66632
643 1 3.77161 56.5129 0.126577
1441 1 0.0845949 56.8916 3.7753
1443 1 3.28535 57.0783 3.36037
642 1 1.94089 58.508 1.80465
604 1 5.26801 54.8991 1.5667
645 1 7.1057 57.3137 0.130695
1445 1 6.75066 56.6829 3.79898
644 1 5.47823 58.5081 1.46962
606 1 8.52202 55.1274 2.00298
608 1 12.5412 55.4426 1.38509
647 1 10.7045 56.8224 0.0940995
1447 1 10.3668 56.7933 3.14667
610 1 15.7344 54.876 1.89624
649 1 14.3052 57.2836 0.188687
1449 1 14.4964 56.8876 3.73346
612 1 19.2274 55.1058 1.71953
1451 1 17.7325 56.6151 3.84535
614 1 23.2594 54.7254 1.83427
1453 1 21.343 56.7479 3.1827
1455 1 25.0377 56.5205 3.37905
616 1 26.9578 55.2222 2.14409
657 1 28.8121 56.6105 0.214158
1457 1 28.4544 56.7692 3.23372
618 1 30.1573 54.6403 1.46446
1459 1 31.2178 55.0267 3.60546
620 1 33.5643 54.828 2.10999
622 1 37.3897 55.0357 1.68772
1461 1 35.4477 56.666 3.93308
624 1 40.6343 55.053 1.97598
663 1 39.3548 56.644 0.417247
1463 1 38.7401 57.2086 3.34101
626 1 44.3698 55.0869 1.57899
1465 1 42.8429 57.0769 3.08146
667 1 45.915 56.5622 0.14673
628 1 48.4599 54.8368 2.07532
1467 1 46.1762 56.4118 3.51748
1469 1 49.5328 56.4956 3.69221
668 1 47.6343 58.3567 1.73943
630 1 51.8387 55.4922 1.40365
1471 1 53.6959 57.0322 3.69293
632 1 55.3081 54.8777 1.58823
1473 1 56.8167 57.2198 3.91413
634 1 58.7965 55.1808 1.38836
636 1 62.3336 55.0666 1.91952
1475 1 60.8313 56.6124 3.74347
638 1 65.7973 55.3906 1.97961
677 1 63.5037 57.0583 0.0814029
1477 1 63.7085 56.6951 3.26609
678 1 66.0785 58.381 1.4671
641 1 -0.199622 56.828 0.297018
640 1 69.185 54.9312 2.15384
679 1 67.6248 56.7435 0.365999
1479 1 67.7637 56.6348 3.68524
682 1 2.1024 62.1614 2.17991
1483 1 3.41319 60.0559 3.25509
684 1 4.96375 61.9211 1.57314
1485 1 6.69301 60.5957 3.32649
646 1 8.52258 59.1047 1.51064
686 1 9.05869 62.3702 1.60602
1487 1 10.9239 60.7148 3.46147
648 1 12.6312 58.6404 1.96792
688 1 12.6671 62.4861 2.22711
650 1 15.7647 58.9802 1.57577
690 1 16.0816 62.0802 1.50299
1489 1 14.673 60.3108 3.2881
652 1 19.406 58.9578 1.63356
691 1 17.3664 60.2142 0.0624476
692 1 19.8187 61.8859 1.56064
1491 1 18.0348 60.747 3.76359
654 1 23.2859 58.593 1.42422
693 1 21.2025 60.2695 0.335785
694 1 23.44 62.0958 2.12529
1493 1 21.2658 60.3665 3.4922
1495 1 24.5212 60.6761 3.79452
656 1 26.8106 58.7253 1.9654
696 1 27.0408 61.8335 1.64487
1497 1 28.1501 60.5687 3.87959
15995 3 32.8296 58.792 3.4506
658 1 30.4443 59.0152 1.66694
698 1 30.2167 62.6275 1.62582
1499 1 31.5583 61.2235 3.18771
660 1 34.1064 59.3113 0.590281
662 1 37.0454 58.9475 1.81874
700 1 33.9022 61.931 1.3421
702 1 37.051 61.9294 1.76466
1501 1 35.7069 60.6217 3.4122
664 1 41.088 59.02 1.98165
704 1 41.245 62.1033 1.38198
1503 1 39.0292 60.1981 3.89595
666 1 44.806 58.9778 2.10955
705 1 42.8944 60.462 0.28384
706 1 44.1096 62.4251 1.58446
1505 1 42.7629 60.3604 3.23687
707 1 46.4346 60.8696 0.0746347
708 1 47.9352 62.0755 1.8885
1507 1 46.2286 60.6676 3.16608
1509 1 49.9742 60.3188 3.76376
670 1 51.9217 58.6918 1.8779
710 1 51.644 62.009 1.76346
1511 1 53.3223 60.2458 3.52679
672 1 55.2517 59.0398 1.56245
712 1 54.882 62.1203 1.69154
1513 1 56.911 60.294 3.6698
674 1 58.5962 59.0767 1.4711
676 1 62.4158 58.5918 1.84568
714 1 59.0121 61.9167 2.03566
715 1 60.3145 60.2255 0.0300348
716 1 61.9581 62.2583 2.21965
1515 1 60.5451 60.3512 3.96271
718 1 65.5664 62.2708 1.46496
1517 1 63.6442 60.431 3.81922
1481 1 -0.341135 60.0169 3.34272
680 1 69.087 59.0967 1.78556
720 1 68.986 62.4789 2.18256
1519 1 67.7027 60.3442 3.80705
722 1 1.8539 65.4808 1.55887
1521 1 0.201903 64.0663 3.6892
1523 1 3.91955 63.7126 3.21436
724 1 5.79665 65.8305 1.58548
1525 1 6.97507 64.0107 3.16097
1524 1 5.77262 65.9951 4.10297
726 1 9.20836 65.5096 1.85212
1527 1 11.0511 64.0235 3.29174
728 1 12.5781 65.5413 1.51706
729 1 13.8663 63.6797 0.0638889
730 1 15.6661 65.6582 1.33405
1529 1 14.3343 64.508 3.27557
731 1 17.9371 64.2649 0.310801
732 1 19.9181 65.9621 1.56291
1531 1 18.0821 63.7281 3.44005
733 1 21.6885 64.3017 0.0296474
734 1 23.1757 65.4249 1.61244
735 1 24.791 64.2371 0.192557
1533 1 21.1995 64.2603 3.50327
1535 1 24.9193 64.0389 3.60637
736 1 26.9997 65.5852 1.5589
1537 1 28.2365 63.9579 3.44776
738 1 30.2784 65.6374 2.23422
739 1 31.7037 64.3427 0.0873269
1539 1 32.1744 63.8961 3.97273
740 1 34.0029 65.3046 1.52613
742 1 37.2722 65.721 1.49891
1541 1 35.3463 63.9939 3.50926
743 1 38.6562 64.2761 0.200075
744 1 40.6108 65.8723 1.6637
1543 1 38.6511 64.3417 3.5776
746 1 44.3911 66.1039 1.51502
1545 1 42.6263 63.8519 3.68253
748 1 48.0726 65.597 2.19582
1547 1 46.3348 64.3444 3.30986
1549 1 49.6841 63.8006 3.77622
750 1 51.2346 66.1337 2.04277
751 1 53.5569 63.8023 0.00386275
1551 1 53.7305 64.3289 3.76422
752 1 55.3009 65.4818 1.97982
753 1 56.7808 64.2925 0.268709
1553 1 57.3011 64.011 3.37873
754 1 58.9349 65.3915 2.18869
755 1 59.9787 63.8587 0.269508
756 1 61.8507 65.9716 1.43447
1555 1 60.5638 64.2336 3.88097
758 1 65.7998 65.8481 1.86688
1557 1 63.6586 63.5926 3.48669
760 1 69.1653 65.7957 1.82531
1559 1 67.7336 64.2453 3.62727
761 1 0.279704 67.4527 0.357394
762 1 2.13631 69.3178 2.12939
1563 1 3.82657 67.9002 3.02636
805 1 7.38761 -0.0207254 3.86733
764 1 5.3677 69.6025 1.49502
765 1 7.21753 67.8509 0.238427
1565 1 7.55178 67.8862 3.26548
807 1 10.8885 -0.395953 3.38829
766 1 8.84445 69.2524 1.49772
767 1 10.3598 67.9594 0.102611
1567 1 10.5609 67.8493 3.46086
809 1 14.2109 -0.445161 3.30595
768 1 12.8219 69.2369 1.99938
770 1 16.0764 68.889 1.74023
1569 1 13.8588 67.6312 3.89635
11 1 18.1305 -1.65775 0.610598
811 1 17.6711 -0.0820075 3.48948
772 1 19.8572 69.1601 2.10144
1571 1 18.0096 67.6588 3.16616
13 1 21.4847 -0.139374 0.106851
813 1 21.797 -0.30052 3.79517
773 1 21.3234 67.622 0.399221
774 1 23.0629 69.4493 1.49553
1573 1 21.5584 67.6712 3.89929
1575 1 25.2673 67.5982 3.369
776 1 26.7314 69.3495 1.94386
777 1 28.0538 67.7708 0.341348
1577 1 28.4857 67.953 3.90893
778 1 30.3223 68.9426 1.42117
779 1 32.2597 67.64 0.318498
1579 1 32.1733 67.6532 3.17974
821 1 35.652 -0.332503 3.34205
780 1 34.0464 69.7773 1.45917
781 1 35.2678 67.9464 0.237623
782 1 37.2765 69.4375 1.95708
1581 1 35.8606 67.9272 3.56349
823 1 39.0534 -0.41872 3.17595
784 1 40.7867 69.5021 1.4216
1583 1 38.7905 67.6835 3.93099